[Molden Format]
[GTO]
    1 0
 s   6 1.00
      33.8650000    1.0000000000
       5.0947900    0.0000000000
       1.1587900    0.0000000000
       0.3258400    0.0000000000
       0.1027410    0.0000000000
       0.0360000    0.0000000000
 s   6 1.00
      33.8650000    0.0000000000
       5.0947900    1.0000000000
       1.1587900    0.0000000000
       0.3258400    0.0000000000
       0.1027410    0.0000000000
       0.0360000    0.0000000000
 s   6 1.00
      33.8650000    0.0000000000
       5.0947900    0.0000000000
       1.1587900    1.0000000000
       0.3258400    0.0000000000
       0.1027410    0.0000000000
       0.0360000    0.0000000000
 s   6 1.00
      33.8650000    0.0000000000
       5.0947900    0.0000000000
       1.1587900    0.0000000000
       0.3258400    1.0000000000
       0.1027410    0.0000000000
       0.0360000    0.0000000000
 s   6 1.00
      33.8650000    0.0000000000
       5.0947900    0.0000000000
       1.1587900    0.0000000000
       0.3258400    0.0000000000
       0.1027410    1.0000000000
       0.0360000    0.0000000000
 s   6 1.00
      33.8650000    0.0000000000
       5.0947900    0.0000000000
       1.1587900    0.0000000000
       0.3258400    0.0000000000
       0.1027410    0.0000000000
       0.0360000    1.0000000000
 p   1 1.00
       0.7500000    1.0000000000

    2 0
 s   6 1.00
      33.8650000    1.0000000000
       5.0947900    0.0000000000
       1.1587900    0.0000000000
       0.3258400    0.0000000000
       0.1027410    0.0000000000
       0.0360000    0.0000000000
 s   6 1.00
      33.8650000    0.0000000000
       5.0947900    1.0000000000
       1.1587900    0.0000000000
       0.3258400    0.0000000000
       0.1027410    0.0000000000
       0.0360000    0.0000000000
 s   6 1.00
      33.8650000    0.0000000000
       5.0947900    0.0000000000
       1.1587900    1.0000000000
       0.3258400    0.0000000000
       0.1027410    0.0000000000
       0.0360000    0.0000000000
 s   6 1.00
      33.8650000    0.0000000000
       5.0947900    0.0000000000
       1.1587900    0.0000000000
       0.3258400    1.0000000000
       0.1027410    0.0000000000
       0.0360000    0.0000000000
 s   6 1.00
      33.8650000    0.0000000000
       5.0947900    0.0000000000
       1.1587900    0.0000000000
       0.3258400    0.0000000000
       0.1027410    1.0000000000
       0.0360000    0.0000000000
 s   6 1.00
      33.8650000    0.0000000000
       5.0947900    0.0000000000
       1.1587900    0.0000000000
       0.3258400    0.0000000000
       0.1027410    0.0000000000
       0.0360000    1.0000000000
 p   1 1.00
       0.7500000    1.0000000000

    3 0
 s   6 1.00
      33.8650000    1.0000000000
       5.0947900    0.0000000000
       1.1587900    0.0000000000
       0.3258400    0.0000000000
       0.1027410    0.0000000000
       0.0360000    0.0000000000
 s   6 1.00
      33.8650000    0.0000000000
       5.0947900    1.0000000000
       1.1587900    0.0000000000
       0.3258400    0.0000000000
       0.1027410    0.0000000000
       0.0360000    0.0000000000
 s   6 1.00
      33.8650000    0.0000000000
       5.0947900    0.0000000000
       1.1587900    1.0000000000
       0.3258400    0.0000000000
       0.1027410    0.0000000000
       0.0360000    0.0000000000
 s   6 1.00
      33.8650000    0.0000000000
       5.0947900    0.0000000000
       1.1587900    0.0000000000
       0.3258400    1.0000000000
       0.1027410    0.0000000000
       0.0360000    0.0000000000
 s   6 1.00
      33.8650000    0.0000000000
       5.0947900    0.0000000000
       1.1587900    0.0000000000
       0.3258400    0.0000000000
       0.1027410    1.0000000000
       0.0360000    0.0000000000
 s   6 1.00
      33.8650000    0.0000000000
       5.0947900    0.0000000000
       1.1587900    0.0000000000
       0.3258400    0.0000000000
       0.1027410    0.0000000000
       0.0360000    1.0000000000
 p   1 1.00
       0.7500000    1.0000000000

    4 0
 s   6 1.00
      33.8650000    1.0000000000
       5.0947900    0.0000000000
       1.1587900    0.0000000000
       0.3258400    0.0000000000
       0.1027410    0.0000000000
       0.0360000    0.0000000000
 s   6 1.00
      33.8650000    0.0000000000
       5.0947900    1.0000000000
       1.1587900    0.0000000000
       0.3258400    0.0000000000
       0.1027410    0.0000000000
       0.0360000    0.0000000000
 s   6 1.00
      33.8650000    0.0000000000
       5.0947900    0.0000000000
       1.1587900    1.0000000000
       0.3258400    0.0000000000
       0.1027410    0.0000000000
       0.0360000    0.0000000000
 s   6 1.00
      33.8650000    0.0000000000
       5.0947900    0.0000000000
       1.1587900    0.0000000000
       0.3258400    1.0000000000
       0.1027410    0.0000000000
       0.0360000    0.0000000000
 s   6 1.00
      33.8650000    0.0000000000
       5.0947900    0.0000000000
       1.1587900    0.0000000000
       0.3258400    0.0000000000
       0.1027410    1.0000000000
       0.0360000    0.0000000000
 s   6 1.00
      33.8650000    0.0000000000
       5.0947900    0.0000000000
       1.1587900    0.0000000000
       0.3258400    0.0000000000
       0.1027410    0.0000000000
       0.0360000    1.0000000000
 p   1 1.00
       0.7500000    1.0000000000

*** Dalton interface to Molden, wave function type :
HF          23Mar22   11:08:08
[Atoms] AU
H          1     1         0.0000000000         0.0000000000         0.058647641
H          1     1         0.0000000000         0.0000000000         1.404552358
H          3     1         0.0000000000         0.0000000000         1.948373766
H          4     1         0.0000000000         0.0000000000         3.294278483
[5D7F]
[9G]
[MO]
Sym= A
 Ene=   -1.1168995873522372
Spin= Alpha
Occup=  2.0000
    1       -0.0027549469447729
    2       -0.0205187324403475
    3       -0.0782949981131041
    4       -0.0981516752755586
    5       -0.0283354518843685
    6        0.0145487150564714
    7        0.0000000000000000
    8        0.0000000000000000
    9       -0.0175788696674776
   10       -0.0075743634364553
   11       -0.0618582540085790
   12       -0.2031267286034722
   13       -0.1828267779019972
   14        0.0023249661569611
   15       -0.0147103793544781
   16        0.0000000000000000
   17        0.0000000000000000
   18        0.0116788630649440
   19       -0.0075743634364448
   20       -0.0618582540084953
   21       -0.2031267286040054
   22       -0.1828267779017938
   23        0.0023249661193018
   24       -0.0147103790951338
   25        0.0000000000000000
   26        0.0000000000000000
   27       -0.0116788630649340
   28       -0.0027549469447812
   29       -0.0205187324403787
   30       -0.0782949981132339
   31       -0.0981516752746061
   32       -0.0283354518789930
   33        0.0145487150117989
   34        0.0000000000000000
   35        0.0000000000000000
   36        0.0175788696673233
Sym= A
 Ene=  -0.36007035839192092
Spin= Alpha
Occup=  2.0000
    1        0.0045695083107355
    2        0.0331430762998711
    3        0.1444658426244214
    4        0.3070621654324114
    5        0.1685226634966055
    6        0.1198103884408987
    7        0.0000000000000000
    8        0.0000000000000000
    9        0.0144129251335114
   10        0.0012587524572979
   11        0.0126237998397535
   12        0.1290377218098315
   13        0.3717485201119534
   14        1.0161337386172222
   15       -0.3578921864187386
   16        0.0000000000000000
   17        0.0000000000000000
   18        0.0039861071100897
   19       -0.0012587524572953
   20       -0.0126237998397432
   21       -0.1290377218098466
   22       -0.3717485201123394
   23       -1.0161337386176172
   24        0.3578921864230644
   25        0.0000000000000000
   26        0.0000000000000000
   27        0.0039861071097890
   28       -0.0045695083107390
   29       -0.0331430762998787
   30       -0.1444658426244189
   31       -0.3070621654318846
   32       -0.1685226634964630
   33       -0.1198103884452430
   34        0.0000000000000000
   35        0.0000000000000000
   36        0.0144129251333682
Sym= A
 Ene=    4.1138239995801670E-002
Spin= Alpha
Occup=  0.0000
    1        0.0002759642511465
    2        0.0031506979526195
    3        0.0063443705864382
    4        0.1639932023422092
    5       -0.4040188588334042
    6        2.7327876108905529
    7        0.0000000000000000
    8        0.0000000000000000
    9        0.0082220183776471
   10       -0.0016909284065122
   11       -0.0137160196392792
   12       -0.0626697415252190
   13       -0.1322652873054104
   14        0.0990918799770853
   15       -1.9614126619565222
   16        0.0000000000000000
   17        0.0000000000000000
   18        0.0317480066322687
   19       -0.0016909284064549
   20       -0.0137160196387568
   21       -0.0626697415255183
   22       -0.1322652873322779
   23        0.0990918796788545
   24       -1.9614126581539744
   25        0.0000000000000000
   26        0.0000000000000000
   27       -0.0317480066314804
   28        0.0002759642511387
   29        0.0031506979526014
   30        0.0063443705865116
   31        0.1639932023544467
   32       -0.4040188587992007
   33        2.7327876102390536
   34        0.0000000000000000
   35        0.0000000000000000
   36       -0.0082220183781942
Sym= A
 Ene=    7.8138973677077783E-002
Spin= Alpha
Occup=  0.0000
    1        0.0008514519535225
    2        0.0057559554914933
    3        0.0345487874243332
    4       -0.0402140015272550
    5        1.9255484602707420
    6      -24.6647075950433035
    7        0.0000000000000000
    8        0.0000000000000000
    9       -0.0003525481062728
   10        0.0003917733424627
   11        0.0006538672691869
   12        0.0876274686088828
   13        0.7086907946139894
   14       -8.5783285689476436
   15      130.0152250389732558
   16        0.0000000000000000
   17        0.0000000000000000
   18        0.0447903524039606
   19       -0.0003917733425162
   20       -0.0006538672695910
   21       -0.0876274686113958
   22       -0.7086907946026336
   23        8.5783285689533226
   24     -130.0152250390504491
   25        0.0000000000000000
   26        0.0000000000000000
   27        0.0447903524090545
   28       -0.0008514519535138
   29       -0.0057559554912414
   30       -0.0345487874249169
   31        0.0402140015209920
   32       -1.9255484602818982
   33       24.6647075951265755
   34        0.0000000000000000
   35        0.0000000000000000
   36       -0.0003525481042124
Sym= A
 Ene=   0.12523192192486085
Spin= Alpha
Occup=  0.0000
    1       -0.0002719892703791
    2        0.0013273159492836
    3       -0.0244348727161856
    4       -0.0270508865843998
    5        0.3993094970721684
    6       -9.3673331354815588
    7        0.0000000000000000
    8        0.0000000000000000
    9       -0.0236184716008218
   10       -0.0008912233276714
   11       -0.0035866974741308
   12       -0.0255464198565308
   13        0.1028947714627725
   14       -0.8422072984127272
   15        9.4495987144233027
   16        0.0000000000000000
   17        0.0000000000000000
   18       -0.0419983008750193
   19       -0.0008912233278765
   20       -0.0035866974755725
   21       -0.0255464198649432
   22        0.1028947715218365
   23       -0.8422072976015660
   24        9.4495987076284909
   25        0.0000000000000000
   26        0.0000000000000000
   27        0.0419983008770259
   28       -0.0002719892703468
   29        0.0013273159494022
   30       -0.0244348727157577
   31       -0.0270508866150325
   32        0.3993094969599393
   33       -9.3673331343073727
   34        0.0000000000000000
   35        0.0000000000000000
   36        0.0236184716020871
Sym= A
 Ene=   0.18070775753552037
Spin= Alpha
Occup=  0.0000
    1        0.0011308781495927
    2        0.0041128029015127
    3        0.0441981592107995
    4       -0.2463323874496615
    5        1.1413027206651074
    6       52.4640881901974296
    7        0.0000000000000000
    8        0.0000000000000000
    9       -0.0392734734990116
   10        0.0000572627838792
   11        0.0058030543147276
   12       -0.0715812644315884
   13        0.2749794376466361
   14        1.7483467389846405
   15     -311.2755315964274700
   16        0.0000000000000000
   17        0.0000000000000000
   18       -0.0823128219744989
   19       -0.0000572627837762
   20       -0.0058030543139484
   21        0.0715812644364081
   22       -0.2749794376670533
   23       -1.7483467390042640
   24      311.2755315965788441
   25        0.0000000000000000
   26        0.0000000000000000
   27       -0.0823128219841259
   28       -0.0011308781496169
   29       -0.0041128029020609
   30       -0.0441981592099921
   31        0.2463323874583750
   32       -1.1413027206287718
   33      -52.4640881903647340
   34        0.0000000000000000
   35        0.0000000000000000
   36       -0.0392734735026787
Sym= A
 Ene=   0.21999943701698513
Spin= Alpha
Occup=  0.0000
    1       -0.0018370735914392
    2       -0.0081737041699386
    3       -0.0642784798017574
    4        0.1904867645988987
    5       -3.0166883382892191
    6        2.1013454296014928
    7        0.0000000000000000
    8        0.0000000000000000
    9        0.0659858462276621
   10        0.0028372855464046
   11        0.0296584418529056
   12        0.0387409398293363
   13        0.1012448686123549
   14        1.7308668850026390
   15       -1.3012775549290594
   16        0.0000000000000000
   17        0.0000000000000000
   18        0.1247706537742937
   19        0.0028372855464345
   20        0.0296584418528489
   21        0.0387409398371787
   22        0.1012448686124832
   23        1.7308668846397821
   24       -1.3012775503543230
   25        0.0000000000000000
   26        0.0000000000000000
   27       -0.1247706537783050
   28       -0.0018370735914347
   29       -0.0081737041698245
   30       -0.0642784798015631
   31        0.1904867646096310
   32       -3.0166883382481093
   33        2.1013454288191462
   34        0.0000000000000000
   35        0.0000000000000000
   36       -0.0659858462285658
Sym= A
 Ene=   0.38315548654856235
Spin= Alpha
Occup=  0.0000
    1        0.0013707650891823
    2        0.0154154697619101
    3        0.0143270360528604
    4        0.8590672599676232
    5      -12.1396960369913529
    6       -0.6664691456177757
    7        0.0000000000000000
    8        0.0000000000000000
    9        0.0777255029553360
   10        0.0002749343933428
   11        0.0114337665600867
   12       -0.1005763840828229
   13       -2.5322111194291086
   14       54.3507473898993112
   15       15.7188745555519969
   16        0.0000000000000000
   17        0.0000000000000000
   18       -0.1056021478132846
   19       -0.0002749343933131
   20       -0.0114337665598637
   21        0.1005763840841170
   22        2.5322111194211954
   23      -54.3507473898958935
   24      -15.7188745555154128
   25        0.0000000000000000
   26        0.0000000000000000
   27       -0.1056021478165049
   28       -0.0013707650891814
   29       -0.0154154697620272
   30       -0.0143270360521800
   31       -0.8590672599615535
   32       12.1396960369873241
   33        0.6664691455806269
   34        0.0000000000000000
   35        0.0000000000000000
   36        0.0777255029537355
Sym= A
 Ene=   0.46053702660302187
Spin= Alpha
Occup=  0.0000
    1        0.0001288207863222
    2        0.0167789640143250
    3       -0.0592861952221940
    4        0.1641357438793045
    5        2.8750876128314875
    6       -5.3830424318701624
    7        0.0000000000000000
    8        0.0000000000000000
    9       -0.0738869188911583
   10        0.0014462528027187
   11        0.0294485386267714
   12        0.0464182983927459
   13        0.7487576442750721
   14       -3.9327401565083586
   15        5.6683621520395171
   16        0.0000000000000000
   17        0.0000000000000000
   18       -0.1431043439042477
   19        0.0014462528026061
   20        0.0294485386261313
   21        0.0464182983855138
   22        0.7487576442734805
   23       -3.9327401562917328
   24        5.6683621504916522
   25        0.0000000000000000
   26        0.0000000000000000
   27        0.1431043439088462
   28        0.0001288207863585
   29        0.0167789640144884
   30       -0.0592861952210334
   31        0.1641357438687561
   32        2.8750876128059546
   33       -5.3830424316067740
   34        0.0000000000000000
   35        0.0000000000000000
   36        0.0738869188920909
Sym= A
 Ene=   0.63010093739391393
Spin= Alpha
Occup=  0.0000
    1        0.0015524655825608
    2        0.0280558113952190
    3        0.0406848274537004
    4        1.4545035341293933
    5        9.1014425446150646
    6      -25.8690850201671587
    7        0.0000000000000000
    8        0.0000000000000000
    9        0.1763156064026795
   10        0.0019767207729254
   11       -0.0093935125974387
   12        0.6591571874259450
   13        1.6076775599063162
   14      -62.6152577640401091
   15      153.6247893913192115
   16        0.0000000000000000
   17        0.0000000000000000
   18        0.4695018679988309
   19       -0.0019767207729841
   20        0.0093935125971144
   21       -0.6591571874303396
   22       -1.6076775599027766
   23       62.6152577640764250
   24     -153.6247893914814995
   25        0.0000000000000000
   26        0.0000000000000000
   27        0.4695018679978187
   28       -0.0015524655825825
   29       -0.0280558113950248
   30       -0.0406848274564349
   31       -1.4545035341229571
   32       -9.1014425446599461
   33       25.8690850203390283
   34        0.0000000000000000
   35        0.0000000000000000
   36        0.1763156064038182
Sym= A
 Ene=   0.66118754438545624
Spin= Alpha
Occup=  0.0000
    1        0.0034848109591191
    2        0.0361650963691400
    3        0.1079959691569381
    4        1.9683644238977049
    5       -3.5675424612096709
    6        2.0312151186886389
    7        0.0000000000000000
    8        0.0000000000000000
    9        0.1685210231525910
   10       -0.0034868504867673
   11       -0.0272830553111034
   12       -0.2320756921234274
   13       -0.9759266188254385
   14        2.3399396425194876
   15       -1.5375893287801077
   16        0.0000000000000000
   17        0.0000000000000000
   18        0.3530741466112963
   19       -0.0034868504866397
   20       -0.0272830553105261
   21       -0.2320756921144260
   22       -0.9759266187652548
   23        2.3399396421125762
   24       -1.5375893261697251
   25        0.0000000000000000
   26        0.0000000000000000
   27       -0.3530741466212607
   28        0.0034848109590578
   29        0.0361650963688979
   30        0.1079959691542708
   31        1.9683644239063722
   32       -3.5675424611590016
   33        2.0312151182458029
   34        0.0000000000000000
   35        0.0000000000000000
   36       -0.1685210231546344
Sym= A
 Ene=    1.0909671824483440
Spin= Alpha
Occup=  0.0000
    1        0.0000000000000000
    2        0.0000000000000000
    3        0.0000000000000000
    4        0.0000000000000000
    5        0.0000000000000000
    6        0.0000000000000000
    7        0.0000000000000000
    8        0.3247526151877395
    9        0.0000000000000000
   10        0.0000000000000000
   11        0.0000000000000000
   12        0.0000000000000000
   13        0.0000000000000000
   14        0.0000000000000000
   15        0.0000000000000000
   16        0.0000000000000000
   17        0.3419878222908702
   18        0.0000000000000000
   19        0.0000000000000000
   20        0.0000000000000000
   21        0.0000000000000000
   22        0.0000000000000000
   23        0.0000000000000000
   24        0.0000000000000000
   25        0.0000000000000000
   26        0.3419878222908706
   27        0.0000000000000000
   28        0.0000000000000000
   29        0.0000000000000000
   30        0.0000000000000000
   31        0.0000000000000000
   32        0.0000000000000000
   33        0.0000000000000000
   34        0.0000000000000000
   35        0.3247526151877396
   36        0.0000000000000000
Sym= A
 Ene=    1.0909671824483442
Spin= Alpha
Occup=  0.0000
    1        0.0000000000000000
    2        0.0000000000000000
    3        0.0000000000000000
    4        0.0000000000000000
    5        0.0000000000000000
    6        0.0000000000000000
    7        0.3247526151877396
    8        0.0000000000000000
    9        0.0000000000000000
   10        0.0000000000000000
   11        0.0000000000000000
   12        0.0000000000000000
   13        0.0000000000000000
   14        0.0000000000000000
   15        0.0000000000000000
   16        0.3419878222908686
   17        0.0000000000000000
   18        0.0000000000000000
   19        0.0000000000000000
   20        0.0000000000000000
   21        0.0000000000000000
   22        0.0000000000000000
   23        0.0000000000000000
   24        0.0000000000000000
   25        0.3419878222908715
   26        0.0000000000000000
   27        0.0000000000000000
   28        0.0000000000000000
   29        0.0000000000000000
   30        0.0000000000000000
   31        0.0000000000000000
   32        0.0000000000000000
   33        0.0000000000000000
   34        0.3247526151877406
   35        0.0000000000000000
   36        0.0000000000000000
Sym= A
 Ene=    1.2172361614390206
Spin= Alpha
Occup=  0.0000
    1        0.0017884945958636
    2       -0.0132250727229721
    3        0.2254734969048906
    4       -4.1034505475214313
    5        5.8861852735884499
    6        2.0889788829546130
    7        0.0000000000000000
    8        0.0000000000000000
    9       -0.1640202427204339
   10        0.0026878861847066
   11       -0.0009995510459560
   12        0.7777575435407471
   13       16.0001355277531374
   14      -23.5266023266942454
   15      -17.7161461557046671
   16        0.0000000000000000
   17        0.0000000000000000
   18        0.4613220341203191
   19       -0.0026878861846951
   20        0.0009995510460182
   21       -0.7777575435396722
   22      -16.0001355277515422
   23       23.5266023266862305
   24       17.7161461557487065
   25        0.0000000000000000
   26        0.0000000000000000
   27        0.4613220341213043
   28       -0.0017884945958753
   29        0.0132250727230100
   30       -0.2254734969060229
   31        4.1034505475213257
   32       -5.8861852735826856
   33       -2.0889788829991227
   34        0.0000000000000000
   35        0.0000000000000000
   36       -0.1640202427187186
Sym= A
 Ene=    1.5472039939931777
Spin= Alpha
Occup=  0.0000
    1        0.0000000000000000
    2        0.0000000000000000
    3        0.0000000000000000
    4        0.0000000000000000
    5        0.0000000000000000
    6        0.0000000000000000
    7       -0.6498550329131584
    8        0.0000000000000000
    9        0.0000000000000000
   10        0.0000000000000000
   11        0.0000000000000000
   12        0.0000000000000000
   13        0.0000000000000000
   14        0.0000000000000000
   15        0.0000000000000000
   16       -0.2496773242167239
   17        0.0000000000000000
   18        0.0000000000000000
   19        0.0000000000000000
   20        0.0000000000000000
   21        0.0000000000000000
   22        0.0000000000000000
   23        0.0000000000000000
   24        0.0000000000000000
   25        0.2496773242167223
   26        0.0000000000000000
   27        0.0000000000000000
   28        0.0000000000000000
   29        0.0000000000000000
   30        0.0000000000000000
   31        0.0000000000000000
   32        0.0000000000000000
   33        0.0000000000000000
   34        0.6498550329131588
   35        0.0000000000000000
   36        0.0000000000000000
Sym= A
 Ene=    1.5472039939931779
Spin= Alpha
Occup=  0.0000
    1        0.0000000000000000
    2        0.0000000000000000
    3        0.0000000000000000
    4        0.0000000000000000
    5        0.0000000000000000
    6        0.0000000000000000
    7        0.0000000000000000
    8       -0.6498550329131590
    9        0.0000000000000000
   10        0.0000000000000000
   11        0.0000000000000000
   12        0.0000000000000000
   13        0.0000000000000000
   14        0.0000000000000000
   15        0.0000000000000000
   16        0.0000000000000000
   17       -0.2496773242167208
   18        0.0000000000000000
   19        0.0000000000000000
   20        0.0000000000000000
   21        0.0000000000000000
   22        0.0000000000000000
   23        0.0000000000000000
   24        0.0000000000000000
   25        0.0000000000000000
   26        0.2496773242167203
   27        0.0000000000000000
   28        0.0000000000000000
   29        0.0000000000000000
   30        0.0000000000000000
   31        0.0000000000000000
   32        0.0000000000000000
   33        0.0000000000000000
   34        0.0000000000000000
   35        0.6498550329131596
   36        0.0000000000000000
Sym= A
 Ene=    1.7539424918669915
Spin= Alpha
Occup=  0.0000
    1        0.0015240743285755
    2       -0.0428388493835712
    3        0.3707121315563086
    4        1.9936468643883687
    5       -2.5296227388410619
    6        2.7608625525252104
    7        0.0000000000000000
    8        0.0000000000000000
    9        0.7825459403561978
   10        0.0102043209210643
   11        0.0250084391501374
   12        0.2922753218695909
   13       -2.8882654853544527
   14        2.9641606288942062
   15       -2.8185262325192109
   16        0.0000000000000000
   17        0.0000000000000000
   18        1.3928879061956430
   19        0.0102043209210160
   20        0.0250084391489441
   21        0.2922753218927842
   22       -2.8882654852572673
   23        2.9641606291437830
   24       -2.8185262365130579
   25        0.0000000000000000
   26        0.0000000000000000
   27       -1.3928879062129100
   28        0.0015240743285367
   29       -0.0428388493835863
   30        0.3707121315532177
   31        1.9936468643829122
   32       -2.5296227388818044
   33        2.7608625532198521
   34        0.0000000000000000
   35        0.0000000000000000
   36       -0.7825459403583264
Sym= A
 Ene=    1.9712943092910826
Spin= Alpha
Occup=  0.0000
    1        0.0072942353032795
    2        0.0039652500733742
    3        0.3709250350469250
    4       -0.9601617088941903
    5       -4.7259711243607008
    6       12.7968586963437296
    7        0.0000000000000000
    8        0.0000000000000000
    9       -0.6640531360336643
   10       -0.0032571518625127
   11        0.0914956487816687
   12       -2.6114874260049414
   13      -11.1716379425260595
   14       35.4283375693890434
   15      -76.6230975214366197
   16        0.0000000000000000
   17        0.0000000000000000
   18       -2.4633260557660397
   19        0.0032571518624607
   20       -0.0914956487824822
   21        2.6114874260082295
   22       11.1716379425552468
   23      -35.4283375694300986
   24       76.6230975214492105
   25        0.0000000000000000
   26        0.0000000000000000
   27       -2.4633260557416499
   28       -0.0072942353031942
   29       -0.0039652500730058
   30       -0.3709250350425409
   31        0.9601617088516605
   32        4.7259711244131983
   33      -12.7968586963598590
   34        0.0000000000000000
   35        0.0000000000000000
   36       -0.6640531360287583
Sym= A
 Ene=    2.0195906230846363
Spin= Alpha
Occup=  0.0000
    1        0.0102603981371671
    2        0.0135850154558797
    3        0.6810357265389009
    4       -2.7426433591727428
    5        1.6381062436338067
    6       -0.1228848628173094
    7        0.0000000000000000
    8        0.0000000000000000
    9       -0.5838718549026224
   10        0.0028271924081919
   11       -0.0449760952377853
   12        0.7867342728910572
   13        0.8439912154478254
   14       -0.4995342302888445
   15       -0.2238595038745514
   16        0.0000000000000000
   17        0.0000000000000000
   18       -1.5853790908322125
   19        0.0028271924080978
   20       -0.0449760952376205
   21        0.7867342728724009
   22        0.8439912153181048
   23       -0.4995342298271294
   24       -0.2238595037042810
   25        0.0000000000000000
   26        0.0000000000000000
   27        1.5853790908514929
   28        0.0102603981372545
   29        0.0135850154561127
   30        0.6810357265444337
   31       -2.7426433591772597
   32        1.6381062435649114
   33       -0.1228848628502081
   34        0.0000000000000000
   35        0.0000000000000000
   36        0.5838718549061249
Sym= A
 Ene=    2.1898683066668552
Spin= Alpha
Occup=  0.0000
    1        0.0000000000000000
    2        0.0000000000000000
    3        0.0000000000000000
    4        0.0000000000000000
    5        0.0000000000000000
    6        0.0000000000000000
    7        0.0000000000000000
    8        0.7753196327280398
    9        0.0000000000000000
   10        0.0000000000000000
   11        0.0000000000000000
   12        0.0000000000000000
   13        0.0000000000000000
   14        0.0000000000000000
   15        0.0000000000000000
   16        0.0000000000000000
   17       -0.5130897753938422
   18        0.0000000000000000
   19        0.0000000000000000
   20        0.0000000000000000
   21        0.0000000000000000
   22        0.0000000000000000
   23        0.0000000000000000
   24        0.0000000000000000
   25        0.0000000000000000
   26       -0.5130897753938262
   27        0.0000000000000000
   28        0.0000000000000000
   29        0.0000000000000000
   30        0.0000000000000000
   31        0.0000000000000000
   32        0.0000000000000000
   33        0.0000000000000000
   34        0.0000000000000000
   35        0.7753196327280351