[Molden Format]
[GTO]
    1 0
 s   6 1.00
      33.8650000    1.0000000000
       5.0947900    0.0000000000
       1.1587900    0.0000000000
       0.3258400    0.0000000000
       0.1027410    0.0000000000
       0.0360000    0.0000000000
 s   6 1.00
      33.8650000    0.0000000000
       5.0947900    1.0000000000
       1.1587900    0.0000000000
       0.3258400    0.0000000000
       0.1027410    0.0000000000
       0.0360000    0.0000000000
 s   6 1.00
      33.8650000    0.0000000000
       5.0947900    0.0000000000
       1.1587900    1.0000000000
       0.3258400    0.0000000000
       0.1027410    0.0000000000
       0.0360000    0.0000000000
 s   6 1.00
      33.8650000    0.0000000000
       5.0947900    0.0000000000
       1.1587900    0.0000000000
       0.3258400    1.0000000000
       0.1027410    0.0000000000
       0.0360000    0.0000000000
 s   6 1.00
      33.8650000    0.0000000000
       5.0947900    0.0000000000
       1.1587900    0.0000000000
       0.3258400    0.0000000000
       0.1027410    1.0000000000
       0.0360000    0.0000000000
 s   6 1.00
      33.8650000    0.0000000000
       5.0947900    0.0000000000
       1.1587900    0.0000000000
       0.3258400    0.0000000000
       0.1027410    0.0000000000
       0.0360000    1.0000000000
 p   1 1.00
       0.7500000    1.0000000000

    2 0
 s   6 1.00
      33.8650000    1.0000000000
       5.0947900    0.0000000000
       1.1587900    0.0000000000
       0.3258400    0.0000000000
       0.1027410    0.0000000000
       0.0360000    0.0000000000
 s   6 1.00
      33.8650000    0.0000000000
       5.0947900    1.0000000000
       1.1587900    0.0000000000
       0.3258400    0.0000000000
       0.1027410    0.0000000000
       0.0360000    0.0000000000
 s   6 1.00
      33.8650000    0.0000000000
       5.0947900    0.0000000000
       1.1587900    1.0000000000
       0.3258400    0.0000000000
       0.1027410    0.0000000000
       0.0360000    0.0000000000
 s   6 1.00
      33.8650000    0.0000000000
       5.0947900    0.0000000000
       1.1587900    0.0000000000
       0.3258400    1.0000000000
       0.1027410    0.0000000000
       0.0360000    0.0000000000
 s   6 1.00
      33.8650000    0.0000000000
       5.0947900    0.0000000000
       1.1587900    0.0000000000
       0.3258400    0.0000000000
       0.1027410    1.0000000000
       0.0360000    0.0000000000
 s   6 1.00
      33.8650000    0.0000000000
       5.0947900    0.0000000000
       1.1587900    0.0000000000
       0.3258400    0.0000000000
       0.1027410    0.0000000000
       0.0360000    1.0000000000
 p   1 1.00
       0.7500000    1.0000000000

[SCFCONV]
scf-first  1  THROUGH   6
       -1.1122227146
       -1.1308514234
       -1.1321585984
       -1.1321989453
       -1.1321997859
       -1.1321997872
[TITLE]
*** Dalton interface to Molden, wave function type : HF            18Mar22   08:
[Atoms] AU
H          1     1         0.0000000000         0.0000000000         0.058647641
H          2     1         0.0000000000         0.0000000000         1.404552358
[5D7F]
[9G]
[MO]
Sym= A
Ene=   -0.6035
Spin= Alpha
Occup=  2.0000
    1        0.005223
    2        0.037424
    3        0.157031
    4        0.289474
    5        0.130325
    6       -0.003031
    9        0.023477
   10        0.005223
   11        0.037424
   12        0.157031
   13        0.289474
   14        0.130325
   15       -0.003031
   18       -0.023477
Sym= A
Ene=    0.0719
Spin= Alpha
Occup=  0.0000
    1        0.000388
    2        0.005443
    3        0.004160
    4        0.190319
    5       -0.610421
    6        4.504836
    9        0.010704
   10       -0.000388
   11       -0.005443
   12       -0.004160
   13       -0.190319
   14        0.610421
   15       -4.504836
   18        0.010704
Sym= A
Ene=    0.0725
Spin= Alpha
Occup=  0.0000
    1        0.001323
    2        0.004370
    3        0.059698
    4       -0.046375
    5        0.553919
    6       -0.845210
    9        0.009737
   10        0.001323
   11        0.004370
   12        0.059698
   13       -0.046375
   14        0.553919
   15       -0.845210
   18       -0.009737
Sym= A
Ene=    0.2457
Spin= Alpha
Occup=  0.0000
    1       -0.002134
    2       -0.009173
    3       -0.083171
    4        0.225170
    5       -3.536373
    6        3.845800
    9        0.073756
   10        0.002134
   11        0.009173
   12        0.083171
   13       -0.225170
   14        3.536373
   15       -3.845800
   18        0.073756
Sym= A
Ene=    0.4448
Spin= Alpha
Occup=  0.0000
    1        0.001638
    2        0.037053
    3       -0.032428
    4        0.950729
    5       -1.527579
    6        0.676843
    9        0.011256
   10        0.001638
   11        0.037053
   12       -0.032428
   13        0.950729
   14       -1.527579
   15        0.676843
   18       -0.011256
Sym= A
Ene=    0.7346
Spin= Alpha
Occup=  0.0000
    1       -0.002706
    2       -0.045225
    3       -0.014364
    4       -2.358086
    5        3.854241
    6       -2.474523
    9       -0.147731
   10        0.002706
   11        0.045225
   12        0.014364
   13        2.358086
   14       -3.854241
   15        2.474523
   18       -0.147731
Sym= A
Ene=    1.3358
Spin= Alpha
Occup=  0.0000
    8        0.576013
   17        0.576013
Sym= A
Ene=    1.3358
Spin= Alpha
Occup=  0.0000
    7        0.576013
   16        0.576013
Sym= A
Ene=    1.8452
Spin= Alpha
Occup=  0.0000
    1        0.007779
    2       -0.010896
    3        0.626223
    4       -1.183840
    5        0.808793
    6       -0.264035
    9        0.503620
   10        0.007779
   11       -0.010896
   12        0.626223
   13       -1.183840
   14        0.808793
   15       -0.264035
   18       -0.503620
Sym= A
Ene=    2.1183
Spin= Alpha
Occup=  0.0000
    7       -1.007047
   16        1.007047
Sym= A
Ene=    2.1183
Spin= Alpha
Occup=  0.0000
    8       -1.007047
   17        1.007047
Sym= A
Ene=    2.1888
Spin= Alpha
Occup=  0.0000
    1        0.010510
    2        0.009516
    3        0.774109
    4       -3.758002
    5        2.636910
    6       -1.424305
    9       -1.175644
   10       -0.010510
   11       -0.009516
   12       -0.774109
   13        3.758002
   14       -2.636910
   15        1.424305
   18       -1.175644
Sym= A
Ene=    2.3000
Spin= Alpha
Occup=  0.0000
    1        0.011242
    2       -0.042744
    3        1.187439
    4       -1.127901
    5        0.568626
    6       -0.184880
    9       -0.559748
   10        0.011242
   11       -0.042744
   12        1.187439
   13       -1.127901
   14        0.568626
   15       -0.184880
   18        0.559748
Sym= A
Ene=    3.3636
Spin= Alpha
Occup=  0.0000
    1       -0.013058
    2        0.051916
    3       -1.446401
    4       -2.376090
    5        0.655220
    6       -0.247930
    9       -2.331333
   10        0.013058
   11       -0.051916
   12        1.446401
   13        2.376090
   14       -0.655220
   15        0.247930
   18       -2.331333
Sym= A
Ene=   10.1341
Spin= Alpha
Occup=  0.0000
    1       -0.028170
    2        1.165879
    3       -1.705621
    4        0.424443
    5       -0.617934
    6        0.380064
    9       -0.596726
   10        0.028170
   11       -1.165879
   12        1.705621
   13       -0.424443
   14        0.617934
   15       -0.380064
   18       -0.596726
Sym= A
Ene=   10.2358
Spin= Alpha
Occup=  0.0000
    1        0.023190
    2       -1.113106
    3        1.212716
    4       -0.735732
    5        0.359182
    6       -0.115911
    9       -0.051640
   10        0.023190
   11       -1.113106
   12        1.212716
   13       -0.735732
   14        0.359182
   15       -0.115911
   18        0.051640
Sym= A
Ene=   61.8288
Spin= Alpha
Occup=  0.0000
    1       -0.896170
    2        0.760430
    3       -0.607237
    4        0.162450
    5       -0.217840
    6        0.135079
    9       -0.183022
   10        0.896170
   11       -0.760430
   12        0.607237
   13       -0.162450
   14        0.217840
   15       -0.135079
   18       -0.183022
Sym= A
Ene=   62.0857
Spin= Alpha
Occup=  0.0000
    1        0.898079
    2       -0.757721
    3        0.476533
    4       -0.267779
    5        0.132554
    6       -0.043444
    9       -0.017879
   10        0.898079
   11       -0.757721
   12        0.476533
   13       -0.267779
   14        0.132554
   15       -0.043444
   18        0.017879
[End of Molden output from Dalton]
