[Molden Format]
[GTO]
    1 0
 s   3 1.00
       5.4471780    1.0000000000
       0.8245470    0.0000000000
       0.1831920    0.0000000000
 s   3 1.00
       5.4471780    0.0000000000
       0.8245470    1.0000000000
       0.1831920    0.0000000000
 s   3 1.00
       5.4471780    0.0000000000
       0.8245470    0.0000000000
       0.1831920    1.0000000000

    2 0
 s   3 1.00
       5.4471780    1.0000000000
       0.8245470    0.0000000000
       0.1831920    0.0000000000
 s   3 1.00
       5.4471780    0.0000000000
       0.8245470    1.0000000000
       0.1831920    0.0000000000
 s   3 1.00
       5.4471780    0.0000000000
       0.8245470    0.0000000000
       0.1831920    1.0000000000

*** Dalton interface to Molden, wave function type :
HF          26Jul22   17:12:17
[Atoms] AU
H          1     1         0.0000000000         0.0000000000         0.058647641
H          2     1         0.0000000000         0.0000000000         1.404552358
[5D7F]
[9G]
[MO]
Sym= A
 Ene=  -0.60135084250583892
Spin= Alpha
Occup=  2.0000
    1        0.0459592341170193
    2        0.2661377320611247
    3        0.3051773359487537
    4        0.0459592341170198
    5        0.2661377320611247
    6        0.3051773359487528
Sym= A
 Ene=   0.27063757303785108
Spin= Alpha
Occup=  0.0000
    1       -0.0280429761351052
    2       -0.0675858035435148
    3       -1.7198760783910925
    4        0.0280429761351053
    5        0.0675858035435143
    6        1.7198760783910929
Sym= A
 Ene=   0.80367115232312203
Spin= Alpha
Occup=  0.0000
    1        0.0192678347102525
    2        0.7761489311725835
    3       -0.6893007055565843
    4        0.0192678347102528
    5        0.7761489311725823
    6       -0.6893007055565821
Sym= A
 Ene=    1.3725867052662726
Spin= Alpha
Occup=  0.0000
    1        0.0257612383781772
    2        1.1552822360567250
    3       -1.3729930415496161
    4       -0.0257612383781769
    5       -1.1552822360567259
    6        1.3729930415496172
Sym= A
 Ene=    8.2170642899493576
Spin= Alpha
Occup=  0.0000
    1        0.8820718927725744
    2       -0.8853558228882535
    3        0.5448890383075596
    4       -0.8820718927725794
    5        0.8853558228882574
    6       -0.5448890383075607
Sym= A
 Ene=    8.7501328667077498
Spin= Alpha
Occup=  0.0000
    1       -0.8978282925952074
    2        0.6351544704094473
    3       -0.2122825254275601
    4       -0.8978282925952029
    5        0.6351544704094426
    6       -0.2122825254275573
