[Molden Format]
[GTO]
    1 0
 s   6 1.00
      33.8700000    1.0000000000
       5.0950000    0.0000000000
       1.1590000    0.0000000000
       0.3258000    0.0000000000
       0.1027000    0.0000000000
       0.0252600    0.0000000000
 s   6 1.00
      33.8700000    0.0000000000
       5.0950000    1.0000000000
       1.1590000    0.0000000000
       0.3258000    0.0000000000
       0.1027000    0.0000000000
       0.0252600    0.0000000000
 s   6 1.00
      33.8700000    0.0000000000
       5.0950000    0.0000000000
       1.1590000    1.0000000000
       0.3258000    0.0000000000
       0.1027000    0.0000000000
       0.0252600    0.0000000000
 s   6 1.00
      33.8700000    0.0000000000
       5.0950000    0.0000000000
       1.1590000    0.0000000000
       0.3258000    1.0000000000
       0.1027000    0.0000000000
       0.0252600    0.0000000000
 s   6 1.00
      33.8700000    0.0000000000
       5.0950000    0.0000000000
       1.1590000    0.0000000000
       0.3258000    0.0000000000
       0.1027000    1.0000000000
       0.0252600    0.0000000000
 s   6 1.00
      33.8700000    0.0000000000
       5.0950000    0.0000000000
       1.1590000    0.0000000000
       0.3258000    0.0000000000
       0.1027000    0.0000000000
       0.0252600    1.0000000000
 p   3 1.00
       1.4070000    1.0000000000
       0.3880000    0.0000000000
       0.1020000    0.0000000000
 p   3 1.00
       1.4070000    0.0000000000
       0.3880000    1.0000000000
       0.1020000    0.0000000000
 p   3 1.00
       1.4070000    0.0000000000
       0.3880000    0.0000000000
       0.1020000    1.0000000000
 d   2 1.00
       1.0570000    1.0000000000
       0.2470000    0.0000000000
 d   2 1.00
       1.0570000    0.0000000000
       0.2470000    1.0000000000

    2 0
 s   6 1.00
      33.8700000    1.0000000000
       5.0950000    0.0000000000
       1.1590000    0.0000000000
       0.3258000    0.0000000000
       0.1027000    0.0000000000
       0.0252600    0.0000000000
 s   6 1.00
      33.8700000    0.0000000000
       5.0950000    1.0000000000
       1.1590000    0.0000000000
       0.3258000    0.0000000000
       0.1027000    0.0000000000
       0.0252600    0.0000000000
 s   6 1.00
      33.8700000    0.0000000000
       5.0950000    0.0000000000
       1.1590000    1.0000000000
       0.3258000    0.0000000000
       0.1027000    0.0000000000
       0.0252600    0.0000000000
 s   6 1.00
      33.8700000    0.0000000000
       5.0950000    0.0000000000
       1.1590000    0.0000000000
       0.3258000    1.0000000000
       0.1027000    0.0000000000
       0.0252600    0.0000000000
 s   6 1.00
      33.8700000    0.0000000000
       5.0950000    0.0000000000
       1.1590000    0.0000000000
       0.3258000    0.0000000000
       0.1027000    1.0000000000
       0.0252600    0.0000000000
 s   6 1.00
      33.8700000    0.0000000000
       5.0950000    0.0000000000
       1.1590000    0.0000000000
       0.3258000    0.0000000000
       0.1027000    0.0000000000
       0.0252600    1.0000000000
 p   3 1.00
       1.4070000    1.0000000000
       0.3880000    0.0000000000
       0.1020000    0.0000000000
 p   3 1.00
       1.4070000    0.0000000000
       0.3880000    1.0000000000
       0.1020000    0.0000000000
 p   3 1.00
       1.4070000    0.0000000000
       0.3880000    0.0000000000
       0.1020000    1.0000000000
 d   2 1.00
       1.0570000    1.0000000000
       0.2470000    0.0000000000
 d   2 1.00
       1.0570000    0.0000000000
       0.2470000    1.0000000000

[SCFCONV]
scf-first  1  THROUGH   6
       -1.1123033831
       -1.1314183066
       -1.1327345252
       -1.1327780694
       -1.1327787159
       -1.1327787179
[TITLE]
*** Dalton interface to Molden, wave function type : HF            26Jul22   20:
[Atoms] AU
H          1     1         0.0000000000         0.0000000000         0.058647641
H          2     1         0.0000000000         0.0000000000         1.404552358
[5D7F]
[9G]
[MO]
Sym= A
Ene=   -0.6035
Spin= Alpha
Occup=  2.0000
    1        0.005198
    2        0.037792
    3        0.156616
    4        0.285212
    5        0.128438
    6       -0.000571
    9        0.012372
   12        0.017721
   15        0.010241
   16        0.002014
   21        0.000392
   26        0.005198
   27        0.037792
   28        0.156616
   29        0.285212
   30        0.128438
   31       -0.000571
   34       -0.012372
   37       -0.017721
   40       -0.010241
   41        0.002014
   46        0.000392
Sym= A
Ene=    0.0527
Spin= Alpha
Occup=  0.0000
    1        0.001041
    2        0.004324
    3        0.042192
    4       -0.028860
    5        0.388290
    6       -0.701194
    9       -0.000975
   12        0.028850
   15       -0.076957
   16        0.001301
   21        0.003425
   26        0.001041
   27        0.004324
   28        0.042192
   29       -0.028860
   30        0.388290
   31       -0.701194
   34        0.000975
   37       -0.028850
   40        0.076957
   41        0.001301
   46        0.003425
Sym= A
Ene=    0.0529
Spin= Alpha
Occup=  0.0000
    1        0.000421
    2        0.001777
    3        0.017836
    4        0.733959
    5        5.689814
    6        5.322228
    9        0.003405
   12        0.263610
   15        1.391607
   16        0.010065
   21        0.089903
   26       -0.000421
   27       -0.001777
   28       -0.017836
   29       -0.733959
   30       -5.689814
   31       -5.322228
   34        0.003405
   37        0.263610
   40        1.391607
   41       -0.010065
   46       -0.089903
Sym= A
Ene=    0.1933
Spin= Alpha
Occup=  0.0000
    1        0.001168
    2        0.013607
    3        0.018148
    4       -2.295559
    5      -23.727902
    6       -4.043456
    9       -0.025052
   12       -0.949282
   15       -6.075432
   16       -0.033942
   21       -0.315908
   26       -0.001168
   27       -0.013607
   28       -0.018148
   29        2.295559
   30       23.727902
   31        4.043456
   34       -0.025052
   37       -0.949282
   40       -6.075432
   41        0.033942
   46        0.315908
Sym= A
Ene=    0.2098
Spin= Alpha
Occup=  0.0000
    8        0.024479
   11       -0.058705
   14        0.540818
   18        0.002779
   23       -0.006400
   33        0.024479
   36       -0.058705
   39        0.540818
   43       -0.002779
   48        0.006400
Sym= A
Ene=    0.2098
Spin= Alpha
Occup=  0.0000
    7        0.024479
   10       -0.058705
   13        0.540818
   17        0.002779
   22       -0.006400
   32        0.024479
   35       -0.058705
   38        0.540818
   42       -0.002779
   47        0.006400
Sym= A
Ene=    0.2842
Spin= Alpha
Occup=  0.0000
    1        0.000604
    2        0.011132
    3       -0.008733
    4       -0.295607
    5       -0.693064
    6        0.388013
    9       -0.004824
   12        0.165257
   15        2.432495
   16        0.000303
   21        0.344375
   26        0.000604
   27        0.011132
   28       -0.008733
   29       -0.295607
   30       -0.693064
   31        0.388013
   34        0.004824
   37       -0.165257
   40       -2.432495
   41        0.000303
   46        0.344375
Sym= A
Ene=    0.2976
Spin= Alpha
Occup=  0.0000
    8        0.018440
   11       -0.424546
   14       -3.290979
   18       -0.002516
   23       -0.450148
   33       -0.018440
   36        0.424546
   39        3.290979
   43       -0.002516
   48       -0.450148
Sym= A
Ene=    0.2976
Spin= Alpha
Occup=  0.0000
    7        0.018440
   10       -0.424546
   13       -3.290979
   17       -0.002516
   22       -0.450148
   32       -0.018440
   35        0.424546
   38        3.290979
   42       -0.002516
   47       -0.450148
Sym= A
Ene=    0.4127
Spin= Alpha
Occup=  0.0000
    1       -0.001703
    2       -0.030726
    3       -0.016875
    4       -1.335303
    5        1.148634
    6       -0.304611
    9       -0.042758
   12        0.311822
   15        1.400437
   16        0.004283
   21        0.366246
   26       -0.001703
   27       -0.030726
   28       -0.016875
   29       -1.335303
   30        1.148634
   31       -0.304611
   34        0.042758
   37       -0.311822
   40       -1.400437
   41        0.004283
   46        0.366246
Sym= A
Ene=    0.4260
Spin= Alpha
Occup=  0.0000
    1       -0.002410
    2       -0.008303
    3       -0.106732
    4       -2.216579
    5      -70.201241
    6       -2.664526
    9        0.023712
   12       -0.894799
   15      -15.956361
   16       -0.010955
   21       -0.429545
   26        0.002410
   27        0.008303
   28        0.106732
   29        2.216579
   30       70.201241
   31        2.664526
   34        0.023712
   37       -0.894799
   40      -15.956361
   41        0.010955
   46        0.429545
Sym= A
Ene=    0.7313
Spin= Alpha
Occup=  0.0000
    1        0.002641
    2        0.020498
    3        0.100531
    4       11.841021
    5      -27.586261
    6        0.809648
    9        0.130091
   12        3.792370
   15       -5.367761
   16        0.179909
   21        1.170753
   26       -0.002641
   27       -0.020498
   28       -0.100531
   29      -11.841021
   30       27.586261
   31       -0.809648
   34        0.130091
   37        3.792370
   40       -5.367761
   41       -0.179909
   46       -1.170753
Sym= A
Ene=    0.7934
Spin= Alpha
Occup=  0.0000
   20       -0.048044
   25        0.545071
   45       -0.048044
   50        0.545071
Sym= A
Ene=    0.7934
Spin= Alpha
Occup=  0.0000
   19       -0.048044
   24        0.545071
   44       -0.048044
   49        0.545071
Sym= A
Ene=    0.8856
Spin= Alpha
Occup=  0.0000
    8        0.065051
   11       -1.257772
   14       -2.785212
   18       -0.021804
   23       -1.481797
   33       -0.065051
   36        1.257772
   39        2.785212
   43       -0.021804
   48       -1.481797
Sym= A
Ene=    0.8856
Spin= Alpha
Occup=  0.0000
    7        0.065051
   10       -1.257772
   13       -2.785212
   17       -0.021804
   22       -1.481797
   32       -0.065051
   35        1.257772
   38        2.785212
   42       -0.021804
   47       -1.481797
Sym= A
Ene=    0.9008
Spin= Alpha
Occup=  0.0000
    1        0.000618
    2       -0.017560
    3        0.135571
    4        0.961630
    5       -0.128678
    6       -0.135552
    9        0.045617
   12       -0.457332
   15       -2.213700
   16       -0.013023
   21       -1.265782
   26        0.000618
   27       -0.017560
   28        0.135571
   29        0.961630
   30       -0.128678
   31       -0.135552
   34       -0.045617
   37        0.457332
   40        2.213700
   41       -0.013023
   46       -1.265782
Sym= A
Ene=    0.9345
Spin= Alpha
Occup=  0.0000
    8       -0.049368
   11        0.637600
   14       -0.355077
   18       -0.015951
   23        0.193308
   33       -0.049368
   36        0.637600
   39       -0.355077
   43        0.015951
   48       -0.193308
Sym= A
Ene=    0.9345
Spin= Alpha
Occup=  0.0000
    7       -0.049368
   10        0.637600
   13       -0.355077
   17       -0.015951
   22        0.193308
   32       -0.049368
   35        0.637600
   38       -0.355077
   42        0.015951
   47       -0.193308
Sym= A
Ene=    1.0511
Spin= Alpha
Occup=  0.0000
   19        0.063244
   24       -1.616859
   44       -0.063244
   49        1.616859
Sym= A
Ene=    1.0511
Spin= Alpha
Occup=  0.0000
   20        0.063244
   25       -1.616859
   45       -0.063244
   50        1.616859
Sym= A
Ene=    1.0588
Spin= Alpha
Occup=  0.0000
    1        0.001822
    2        0.040538
    3       -0.019020
    4      -11.815985
    5      -53.701815
    6       -1.711627
    9       -0.051633
   12       -4.894916
   15      -12.183176
   16       -0.134202
   21       -2.073179
   26       -0.001822
   27       -0.040538
   28        0.019020
   29       11.815985
   30       53.701815
   31        1.711627
   34       -0.051633
   37       -4.894916
   40      -12.183176
   41        0.134202
   46        2.073179
Sym= A
Ene=    1.0688
Spin= Alpha
Occup=  0.0000
    7       -0.054680
   10        0.621247
   13       -0.177413
   17        0.041391
   22       -1.210667
   32       -0.054680
   35        0.621247
   38       -0.177413
   42       -0.041391
   47        1.210667
Sym= A
Ene=    1.0688
Spin= Alpha
Occup=  0.0000
    8       -0.054680
   11        0.621247
   14       -0.177413
   18        0.041391
   23       -1.210667
   33       -0.054680
   36        0.621247
   39       -0.177413
   43       -0.041391
   48        1.210667
Sym= A
Ene=    1.5175
Spin= Alpha
Occup=  0.0000
    1       -0.005653
    2       -0.005466
    3       -0.273309
    4        2.103976
    5       -1.090782
    6        0.152143
    9        0.100701
   12       -1.698347
   15       -1.175428
   16       -0.053056
   21       -1.039636
   26       -0.005653
   27       -0.005466
   28       -0.273309
   29        2.103976
   30       -1.090782
   31        0.152143
   34       -0.100701
   37        1.698347
   40        1.175428
   41       -0.053056
   46       -1.039636
Sym= A
Ene=    1.9547
Spin= Alpha
Occup=  0.0000
    8        0.097944
   11       -3.937797
   14       -1.896076
   18       -0.109995
   23       -1.780891
   33       -0.097944
   36        3.937797
   39        1.896076
   43       -0.109995
   48       -1.780891
Sym= A
Ene=    1.9547
Spin= Alpha
Occup=  0.0000
    7        0.097944
   10       -3.937797
   13       -1.896076
   17       -0.109995
   22       -1.780891
   32       -0.097944
   35        3.937797
   38        1.896076
   42       -0.109995
   47       -1.780891
Sym= A
Ene=    2.0591
Spin= Alpha
Occup=  0.0000
    1       -0.002470
    2       -0.038539
    3       -0.051659
    4       30.817454
    5       -7.688451
    6        0.831288
    9        0.371805
   12       12.591642
   15       -1.040232
   16        0.504040
   21        1.628661
   26        0.002470
   27        0.038539
   28        0.051659
   29      -30.817454
   30        7.688451
   31       -0.831288
   34        0.371805
   37       12.591642
   40       -1.040232
   41       -0.504040
   46       -1.628661
Sym= A
Ene=    2.4847
Spin= Alpha
Occup=  0.0000
    1       -0.012677
    2        0.047653
    3       -1.489682
    4        0.085591
    5        0.017294
    6        0.099659
    9       -0.077203
   12        1.658579
   15        1.093098
   16        0.067430
   21        1.073624
   26       -0.012677
   27        0.047653
   28       -1.489682
   29        0.085591
   30        0.017294
   31        0.099659
   34        0.077203
   37       -1.658579
   40       -1.093098
   41        0.067430
   46        1.073624
Sym= A
Ene=    2.5778
Spin= Alpha
Occup=  0.0000
    1        0.011760
    2        0.007078
    3        0.976654
    4       12.372206
    5       32.248054
    6        0.716473
    9       -0.260263
   12        6.082440
   15        7.162104
   16       -0.068560
   21        1.347261
   26       -0.011760
   27       -0.007078
   28       -0.976654
   29      -12.372206
   30      -32.248054
   31       -0.716473
   34       -0.260263
   37        6.082440
   40        7.162104
   41        0.068560
   46       -1.347261
Sym= A
Ene=    3.6170
Spin= Alpha
Occup=  0.0000
   20        0.674399
   25       -0.233323
   45        0.674399
   50       -0.233323
Sym= A
Ene=    3.6170
Spin= Alpha
Occup=  0.0000
   19        0.674399
   24       -0.233323
   44        0.674399
   49       -0.233323
Sym= A
Ene=    3.6460
Spin= Alpha
Occup=  0.0000
    8       -0.647167
   11        0.454781
   14       -0.152110
   18       -0.304855
   23        0.142387
   33       -0.647167
   36        0.454781
   39       -0.152110
   43        0.304855
   48       -0.142387
Sym= A
Ene=    3.6460
Spin= Alpha
Occup=  0.0000
    7       -0.647167
   10        0.454781
   13       -0.152110
   17       -0.304855
   22        0.142387
   32       -0.647167
   35        0.454781
   38       -0.152110
   42        0.304855
   47       -0.142387
Sym= A
Ene=    4.1267
Spin= Alpha
Occup=  0.0000
    1       -0.001343
    2        0.017551
    3        0.579784
    4        0.866719
    5       -0.572094
    6        0.064639
    9        0.958161
   12       -2.083705
   15       -0.640493
   16       -0.515930
   21       -0.784977
   26       -0.001343
   27        0.017551
   28        0.579784
   29        0.866719
   30       -0.572094
   31        0.064639
   34       -0.958161
   37        2.083705
   40        0.640493
   41       -0.515930
   46       -0.784977
Sym= A
Ene=    4.4346
Spin= Alpha
Occup=  0.0000
   20       -0.967124
   25        0.522245
   45        0.967124
   50       -0.522245
Sym= A
Ene=    4.4346
Spin= Alpha
Occup=  0.0000
   19       -0.967124
   24        0.522245
   44        0.967124
   49       -0.522245
Sym= A
Ene=    4.4589
Spin= Alpha
Occup=  0.0000
    8        0.674536
   11       -0.448812
   14        0.104117
   18       -0.641315
   23        0.368879
   33        0.674536
   36       -0.448812
   39        0.104117
   43        0.641315
   48       -0.368879
Sym= A
Ene=    4.4589
Spin= Alpha
Occup=  0.0000
    7        0.674536
   10       -0.448812
   13        0.104117
   17       -0.641315
   22        0.368879
   32        0.674536
   35       -0.448812
   38        0.104117
   42        0.641315
   47       -0.368879
Sym= A
Ene=    4.4891
Spin= Alpha
Occup=  0.0000
    8       -0.474804
   11        3.403541
   14        0.759388
   18        1.143934
   23        1.000763
   33        0.474804
   36       -3.403541
   39       -0.759388
   43        1.143934
   48        1.000763
Sym= A
Ene=    4.4891
Spin= Alpha
Occup=  0.0000
    7       -0.474804
   10        3.403541
   13        0.759388
   17        1.143934
   22        1.000763
   32        0.474804
   35       -3.403541
   38       -0.759388
   42        1.143934
   47        1.000763
Sym= A
Ene=    4.8628
Spin= Alpha
Occup=  0.0000
    1        0.009380
    2       -0.100814
    3        1.829363
    4       25.864038
    5        2.804911
    6        0.599678
    9        0.579055
   12       11.403944
   15        0.992825
   16        1.618124
   21        1.281252
   26       -0.009380
   27        0.100814
   28       -1.829363
   29      -25.864038
   30       -2.804911
   31       -0.599678
   34        0.579055
   37       11.403944
   40        0.992825
   41       -1.618124
   46       -1.281252
Sym= A
Ene=    5.4365
Spin= Alpha
Occup=  0.0000
    1        0.004721
    2       -0.094623
    3        1.619947
    4       -0.595650
    5        0.018198
    6       -0.014906
    9        0.046999
   12       -1.249460
   15       -0.024183
   16       -1.290634
   21       -0.242443
   26        0.004721
   27       -0.094623
   28        1.619947
   29       -0.595650
   30        0.018198
   31       -0.014906
   34       -0.046999
   37        1.249460
   40        0.024183
   41       -1.290634
   46       -0.242443
Sym= A
Ene=    5.8884
Spin= Alpha
Occup=  0.0000
    7        1.252211
   10       -0.073591
   13       -0.445076
   17        1.314959
   22       -0.278086
   32       -1.252211
   35        0.073591
   38        0.445076
   42        1.314959
   47       -0.278086
Sym= A
Ene=    5.8884
Spin= Alpha
Occup=  0.0000
    8        1.252211
   11       -0.073591
   14       -0.445076
   18        1.314959
   23       -0.278086
   33       -1.252211
   36        0.073591
   39        0.445076
   43        1.314959
   48       -0.278086
Sym= A
Ene=    7.0644
Spin= Alpha
Occup=  0.0000
    1        0.004836
    2        0.197958
    3        1.876017
    4        4.747759
    5      -14.953941
    6       -0.081113
    9        2.413083
   12        1.627879
   15       -3.145921
   16        1.117643
   21       -0.119110
   26       -0.004836
   27       -0.197958
   28       -1.876017
   29       -4.747759
   30       14.953941
   31        0.081113
   34        2.413083
   37        1.627879
   40       -3.145921
   41       -1.117643
   46        0.119110
Sym= A
Ene=   10.3579
Spin= Alpha
Occup=  0.0000
    1        0.023005
    2       -1.121171
    3        1.268067
    4       -0.447733
    5        0.158120
    6       -0.060190
    9        0.028950
   12       -0.343474
   15       -0.246217
   16        0.021715
   21       -0.246648
   26        0.023005
   27       -1.121171
   28        1.268067
   29       -0.447733
   30        0.158120
   31       -0.060190
   34       -0.028950
   37        0.343474
   40        0.246217
   41        0.021715
   46       -0.246648
Sym= A
Ene=   12.5968
Spin= Alpha
Occup=  0.0000
    1        0.032068
    2       -1.396563
    3        4.112640
    4       12.458226
    5        4.506100
    6        0.302341
    9        2.369535
   12        5.697806
   15        1.140396
   16        1.404055
   21        0.637221
   26       -0.032068
   27        1.396563
   28       -4.112640
   29      -12.458226
   30       -4.506100
   31       -0.302341
   34        2.369535
   37        5.697806
   40        1.140396
   41       -1.404055
   46       -0.637221
Sym= A
Ene=   62.1955
Spin= Alpha
Occup=  0.0000
    1        0.899086
    2       -0.765601
    3        0.511404
    4       -0.172368
    5        0.061368
    6       -0.023027
    9        0.008220
   12       -0.126560
   15       -0.087885
   16       -0.002839
   21       -0.088542
   26        0.899086
   27       -0.765601
   28        0.511404
   29       -0.172368
   30        0.061368
   31       -0.023027
   34       -0.008220
   37        0.126560
   40        0.087885
   41       -0.002839
   46       -0.088542
Sym= A
Ene=   63.2038
Spin= Alpha
Occup=  0.0000
    1        0.912029
    2       -0.911043
    3        1.329126
    4        3.930925
    5        3.350136
    6        0.122049
    9        0.591917
   12        1.857416
   15        0.775576
   16        0.381231
   21        0.241963
   26       -0.912029
   27        0.911043
   28       -1.329126
   29       -3.930925
   30       -3.350136
   31       -0.122049
   34        0.591917
   37        1.857416
   40        0.775576
   41       -0.381231
   46       -0.241963
[End of Molden output from Dalton]
