[Molden Format]
[GTO]
    1 0
 s   7 1.00
      82.6400000    1.0000000000
      12.4100000    0.0000000000
       2.8240000    0.0000000000
       0.7977000    0.0000000000
       0.2581000    0.0000000000
       0.0898900    0.0000000000
       0.0236300    0.0000000000
 s   7 1.00
      82.6400000    0.0000000000
      12.4100000    1.0000000000
       2.8240000    0.0000000000
       0.7977000    0.0000000000
       0.2581000    0.0000000000
       0.0898900    0.0000000000
       0.0236300    0.0000000000
 s   7 1.00
      82.6400000    0.0000000000
      12.4100000    0.0000000000
       2.8240000    1.0000000000
       0.7977000    0.0000000000
       0.2581000    0.0000000000
       0.0898900    0.0000000000
       0.0236300    0.0000000000
 s   7 1.00
      82.6400000    0.0000000000
      12.4100000    0.0000000000
       2.8240000    0.0000000000
       0.7977000    1.0000000000
       0.2581000    0.0000000000
       0.0898900    0.0000000000
       0.0236300    0.0000000000
 s   7 1.00
      82.6400000    0.0000000000
      12.4100000    0.0000000000
       2.8240000    0.0000000000
       0.7977000    0.0000000000
       0.2581000    1.0000000000
       0.0898900    0.0000000000
       0.0236300    0.0000000000
 s   7 1.00
      82.6400000    0.0000000000
      12.4100000    0.0000000000
       2.8240000    0.0000000000
       0.7977000    0.0000000000
       0.2581000    0.0000000000
       0.0898900    1.0000000000
       0.0236300    0.0000000000
 s   7 1.00
      82.6400000    0.0000000000
      12.4100000    0.0000000000
       2.8240000    0.0000000000
       0.7977000    0.0000000000
       0.2581000    0.0000000000
       0.0898900    0.0000000000
       0.0236300    1.0000000000
 p   4 1.00
       2.2920000    1.0000000000
       0.8380000    0.0000000000
       0.2920000    0.0000000000
       0.0848000    0.0000000000
 p   4 1.00
       2.2920000    0.0000000000
       0.8380000    1.0000000000
       0.2920000    0.0000000000
       0.0848000    0.0000000000
 p   4 1.00
       2.2920000    0.0000000000
       0.8380000    0.0000000000
       0.2920000    1.0000000000
       0.0848000    0.0000000000
 p   4 1.00
       2.2920000    0.0000000000
       0.8380000    0.0000000000
       0.2920000    0.0000000000
       0.0848000    1.0000000000
 d   3 1.00
       2.0620000    1.0000000000
       0.6620000    0.0000000000
       0.1900000    0.0000000000
 d   3 1.00
       2.0620000    0.0000000000
       0.6620000    1.0000000000
       0.1900000    0.0000000000
 d   3 1.00
       2.0620000    0.0000000000
       0.6620000    0.0000000000
       0.1900000    1.0000000000
 f   2 1.00
       1.3970000    1.0000000000
       0.3600000    0.0000000000
 f   2 1.00
       1.3970000    0.0000000000
       0.3600000    1.0000000000

    2 0
 s   7 1.00
      82.6400000    1.0000000000
      12.4100000    0.0000000000
       2.8240000    0.0000000000
       0.7977000    0.0000000000
       0.2581000    0.0000000000
       0.0898900    0.0000000000
       0.0236300    0.0000000000
 s   7 1.00
      82.6400000    0.0000000000
      12.4100000    1.0000000000
       2.8240000    0.0000000000
       0.7977000    0.0000000000
       0.2581000    0.0000000000
       0.0898900    0.0000000000
       0.0236300    0.0000000000
 s   7 1.00
      82.6400000    0.0000000000
      12.4100000    0.0000000000
       2.8240000    1.0000000000
       0.7977000    0.0000000000
       0.2581000    0.0000000000
       0.0898900    0.0000000000
       0.0236300    0.0000000000
 s   7 1.00
      82.6400000    0.0000000000
      12.4100000    0.0000000000
       2.8240000    0.0000000000
       0.7977000    1.0000000000
       0.2581000    0.0000000000
       0.0898900    0.0000000000
       0.0236300    0.0000000000
 s   7 1.00
      82.6400000    0.0000000000
      12.4100000    0.0000000000
       2.8240000    0.0000000000
       0.7977000    0.0000000000
       0.2581000    1.0000000000
       0.0898900    0.0000000000
       0.0236300    0.0000000000
 s   7 1.00
      82.6400000    0.0000000000
      12.4100000    0.0000000000
       2.8240000    0.0000000000
       0.7977000    0.0000000000
       0.2581000    0.0000000000
       0.0898900    1.0000000000
       0.0236300    0.0000000000
 s   7 1.00
      82.6400000    0.0000000000
      12.4100000    0.0000000000
       2.8240000    0.0000000000
       0.7977000    0.0000000000
       0.2581000    0.0000000000
       0.0898900    0.0000000000
       0.0236300    1.0000000000
 p   4 1.00
       2.2920000    1.0000000000
       0.8380000    0.0000000000
       0.2920000    0.0000000000
       0.0848000    0.0000000000
 p   4 1.00
       2.2920000    0.0000000000
       0.8380000    1.0000000000
       0.2920000    0.0000000000
       0.0848000    0.0000000000
 p   4 1.00
       2.2920000    0.0000000000
       0.8380000    0.0000000000
       0.2920000    1.0000000000
       0.0848000    0.0000000000
 p   4 1.00
       2.2920000    0.0000000000
       0.8380000    0.0000000000
       0.2920000    0.0000000000
       0.0848000    1.0000000000
 d   3 1.00
       2.0620000    1.0000000000
       0.6620000    0.0000000000
       0.1900000    0.0000000000
 d   3 1.00
       2.0620000    0.0000000000
       0.6620000    1.0000000000
       0.1900000    0.0000000000
 d   3 1.00
       2.0620000    0.0000000000
       0.6620000    0.0000000000
       0.1900000    1.0000000000
 f   2 1.00
       1.3970000    1.0000000000
       0.3600000    0.0000000000
 f   2 1.00
       1.3970000    0.0000000000
       0.3600000    1.0000000000

*** Dalton interface to Molden, wave function type :
HF          11Aug22   11:26:59
[Atoms] AU
H          1     1         0.0000000000         0.0000000000         0.058647641
H          2     1         0.0000000000         0.0000000000         1.404552358
[5D7F]
[9G]
[MO]
Sym= A
 Ene=  -0.60362068821685200
Spin= Alpha
Occup=  2.0000
    1        0.0017240745452876
    2        0.0129614333853095
    3        0.0622719969109768
    4        0.1907660434961423
    5        0.2580620015042468
    6        0.0915850138709087
    7       -0.0007396692831251
    8        0.0000000000000000
    9        0.0000000000000000
   10        0.0057011367056471
   11        0.0000000000000000
   12        0.0000000000000000
   13        0.0118901398257419
   14        0.0000000000000000
   15        0.0000000000000000
   16        0.0097554396925718
   17        0.0000000000000000
   18        0.0000000000000000
   19        0.0044836373317245
   20        0.0015821729611600
   21        0.0000000000000000
   22        0.0000000000000000
   23       -0.0000000000000001
   24        0.0000000000000000
   25       -0.0010793379003504
   26        0.0000000000000000
   27        0.0000000000000000
   28       -0.0000000000000000
   29        0.0000000000000000
   30       -0.0015733190348166
   31        0.0000000000000000
   32        0.0000000000000000
   33        0.0000000000000002
   34        0.0000000000000000
   35        0.0001028173333232
   36        0.0000000000000000
   37        0.0000000000000000
   38        0.0000000000000000
   39        0.0000000000000000
   40        0.0000000000000000
   41        0.0000000000000000
   42       -0.0011866201882466
   43        0.0000000000000000
   44        0.0000000000000000
   45        0.0000000000000002
   46        0.0000000000000000
   47        0.0000000000000000
   48        0.0000000000000000
   49        0.0017240745452882
   50        0.0129614333853149
   51        0.0622719969109238
   52        0.1907660434968246
   53        0.2580620015012588
   54        0.0915850138727684
   55       -0.0007396692829409
   56        0.0000000000000000
   57        0.0000000000000000
   58       -0.0057011367056584
   59        0.0000000000000000
   60        0.0000000000000000
   61       -0.0118901398261313
   62        0.0000000000000000
   63        0.0000000000000000
   64       -0.0097554396914513
   65        0.0000000000000000
   66        0.0000000000000000
   67       -0.0044836373321005
   68        0.0015821729611978
   69        0.0000000000000000
   70        0.0000000000000000
   71       -0.0000000000000000
   72        0.0000000000000000
   73       -0.0010793379002008
   74        0.0000000000000000
   75        0.0000000000000000
   76       -0.0000000000000002
   77        0.0000000000000000
   78       -0.0015733190348706
   79        0.0000000000000000
   80        0.0000000000000000
   81       -0.0000000000000001
   82        0.0000000000000000
   83       -0.0001028173333481
   84        0.0000000000000000
   85        0.0000000000000000
   86       -0.0000000000000000
   87        0.0000000000000000
   88        0.0000000000000000
   89        0.0000000000000000
   90        0.0011866201881223
   91        0.0000000000000000
   92        0.0000000000000000
   93       -0.0000000000000000
   94        0.0000000000000000
   95        0.0000000000000000
   96        0.0000000000000000
Sym= A
 Ene=    4.6960500814491483E-002
Spin= Alpha
Occup=  0.0000
    1        0.0002269681052879
    2        0.0023906333413156
    3        0.0069813531349232
    4        0.0377721879173325
    5       -0.0935943445956717
    6        0.4448592982241013
    7       -0.7266859801180636
    8        0.0000000000000000
    9        0.0000000000000000
   10        0.0041568829374615
   11        0.0000000000000000
   12        0.0000000000000000
   13       -0.0103820883454773
   14        0.0000000000000000
   15        0.0000000000000000
   16        0.0851872158975942
   17        0.0000000000000000
   18        0.0000000000000000
   19       -0.0599706165042012
   20       -0.0010473221869093
   21        0.0000000000000000
   22        0.0000000000000000
   23       -0.0000000000000000
   24        0.0000000000000000
   25        0.0090888394488429
   26        0.0000000000000000
   27        0.0000000000000000
   28       -0.0000000000000000
   29        0.0000000000000000
   30        0.0234897065256619
   31        0.0000000000000000
   32        0.0000000000000000
   33        0.0000000000000000
   34        0.0000000000000000
   35       -0.0007857170761569
   36        0.0000000000000000
   37        0.0000000000000000
   38        0.0000000000000000
   39        0.0000000000000000
   40        0.0000000000000000
   41        0.0000000000000000
   42        0.0069595222262786
   43        0.0000000000000000
   44        0.0000000000000000
   45        0.0000000000000000
   46        0.0000000000000000
   47        0.0000000000000000
   48        0.0000000000000000
   49        0.0002269681052881
   50        0.0023906333413150
   51        0.0069813531349293
   52        0.0377721879172369
   53       -0.0935943445973796
   54        0.4448592982221807
   55       -0.7266859801187292
   56        0.0000000000000000
   57        0.0000000000000000
   58       -0.0041568829374601
   59        0.0000000000000000
   60        0.0000000000000000
   61        0.0103820883455215
   62        0.0000000000000000
   63        0.0000000000000000
   64       -0.0851872158970042
   65        0.0000000000000000
   66        0.0000000000000000
   67        0.0599706165046932
   68       -0.0010473221869112
   69        0.0000000000000000
   70        0.0000000000000000
   71       -0.0000000000000000
   72        0.0000000000000000
   73        0.0090888394488079
   74        0.0000000000000000
   75        0.0000000000000000
   76       -0.0000000000000000
   77        0.0000000000000000
   78        0.0234897065255161
   79        0.0000000000000000
   80        0.0000000000000000
   81       -0.0000000000000000
   82        0.0000000000000000
   83        0.0007857170761603
   84        0.0000000000000000
   85        0.0000000000000000
   86       -0.0000000000000000
   87        0.0000000000000000
   88        0.0000000000000000
   89        0.0000000000000000
   90       -0.0069595222262666
   91        0.0000000000000000
   92        0.0000000000000000
   93       -0.0000000000000000
   94        0.0000000000000000
   95        0.0000000000000000
   96        0.0000000000000000
Sym= A
 Ene=    4.7670379185890122E-002
Spin= Alpha
Occup=  0.0000
    1       -0.0000874251395816
    2       -0.0009464933923501
    3       -0.0032275744978965
    4       -0.0076933121541880
    5       -0.9718418702798679
    6       -7.1850563868950656
    7       -6.1128546689865768
    8        0.0000000000000000
    9        0.0000000000000000
   10       -0.0006036242757871
   11        0.0000000000000000
   12        0.0000000000000000
   13        0.0217958389937695
   14        0.0000000000000000
   15        0.0000000000000000
   16       -0.3605792475847510
   17        0.0000000000000000
   18        0.0000000000000000
   19       -1.6490685783269816
   20        0.0022079457317537
   21        0.0000000000000000
   22        0.0000000000000000
   23       -0.0000000000000001
   24        0.0000000000000000
   25       -0.0043156058632572
   26        0.0000000000000000
   27        0.0000000000000000
   28        0.0000000000000013
   29        0.0000000000000000
   30       -0.1070359211248087
   31        0.0000000000000000
   32        0.0000000000000000
   33        0.0000000000000011
   34        0.0000000000000000
   35        0.0003677486684543
   36        0.0000000000000000
   37        0.0000000000000000
   38        0.0000000000000003
   39        0.0000000000000000
   40        0.0000000000000000
   41        0.0000000000000000
   42       -0.0007525905525071
   43        0.0000000000000000
   44        0.0000000000000000
   45        0.0000000000000009
   46        0.0000000000000000
   47        0.0000000000000000
   48        0.0000000000000000
   49        0.0000874251395818
   50        0.0009464933923435
   51        0.0032275744979100
   52        0.0076933121540639
   53        0.9718418702799589
   54        7.1850563868950896
   55        6.1128546689865333
   56        0.0000000000000000
   57        0.0000000000000000
   58       -0.0006036242757771
   59        0.0000000000000000
   60        0.0000000000000000
   61        0.0217958389937466
   62        0.0000000000000000
   63        0.0000000000000000
   64       -0.3605792475847352
   65        0.0000000000000000
   66        0.0000000000000000
   67       -1.6490685783269419
   68       -0.0022079457317603
   69        0.0000000000000000
   70        0.0000000000000000
   71        0.0000000000000001
   72        0.0000000000000000
   73        0.0043156058633583
   74        0.0000000000000000
   75        0.0000000000000000
   76       -0.0000000000000014
   77        0.0000000000000000
   78        0.1070359211247901
   79        0.0000000000000000
   80        0.0000000000000000
   81       -0.0000000000000011
   82        0.0000000000000000
   83        0.0003677486684491
   84        0.0000000000000000
   85        0.0000000000000000
   86        0.0000000000000003
   87        0.0000000000000000
   88        0.0000000000000000
   89        0.0000000000000000
   90       -0.0007525905525559
   91        0.0000000000000000
   92        0.0000000000000000
   93        0.0000000000000009
   94        0.0000000000000000
   95        0.0000000000000000
   96        0.0000000000000000
Sym= A
 Ene=   0.16310324168745302
Spin= Alpha
Occup=  0.0000
    1        0.0004038532530831
    2        0.0024984375952228
    3        0.0140912113707346
    4        0.0685961100840718
    5       -2.3507067141597258
    6      -23.5693050776097301
    7       -5.2028113171158088
    8        0.0000000000000000
    9        0.0000000000000000
   10       -0.0067302514204279
   11        0.0000000000000000
   12        0.0000000000000000
   13        0.0609637593447464
   14        0.0000000000000000
   15        0.0000000000000000
   16       -0.9938406504145028
   17        0.0000000000000000
   18        0.0000000000000000
   19       -5.6304956348117452
   20        0.0056728914650150
   21        0.0000000000000000
   22        0.0000000000000000
   23        0.0000000000000002
   24        0.0000000000000000
   25       -0.0044419829404169
   26        0.0000000000000000
   27        0.0000000000000000
   28       -0.0000000000000031
   29        0.0000000000000000
   30       -0.2946940533533066
   31        0.0000000000000000
   32        0.0000000000000000
   33       -0.0000000000000027
   34        0.0000000000000000
   35        0.0012330119453875
   36        0.0000000000000000
   37        0.0000000000000000
   38       -0.0000000000000008
   39        0.0000000000000000
   40        0.0000000000000000
   41        0.0000000000000000
   42       -0.0014498228803401
   43        0.0000000000000000
   44        0.0000000000000000
   45       -0.0000000000000020
   46        0.0000000000000000
   47        0.0000000000000000
   48        0.0000000000000000
   49       -0.0004038532530834
   50       -0.0024984375952121
   51       -0.0140912113707730
   52       -0.0685961100850412
   53        2.3507067141594074
   54       23.5693050776100819
   55        5.2028113171157679
   56        0.0000000000000000
   57        0.0000000000000000
   58       -0.0067302514203682
   59        0.0000000000000000
   60        0.0000000000000000
   61        0.0609637593447313
   62        0.0000000000000000
   63        0.0000000000000000
   64       -0.9938406504161176
   65        0.0000000000000000
   66        0.0000000000000000
   67       -5.6304956348126085
   68       -0.0056728914650229
   69        0.0000000000000000
   70        0.0000000000000000
   71       -0.0000000000000002
   72        0.0000000000000000
   73        0.0044419829407392
   74        0.0000000000000000
   75        0.0000000000000000
   76        0.0000000000000031
   77        0.0000000000000000
   78        0.2946940533540586
   79        0.0000000000000000
   80        0.0000000000000000
   81        0.0000000000000027
   82        0.0000000000000000
   83        0.0012330119453260
   84        0.0000000000000000
   85        0.0000000000000000
   86       -0.0000000000000008
   87        0.0000000000000000
   88        0.0000000000000000
   89        0.0000000000000000
   90       -0.0014498228804530
   91        0.0000000000000000
   92        0.0000000000000000
   93       -0.0000000000000020
   94        0.0000000000000000
   95        0.0000000000000000
   96        0.0000000000000000
Sym= A
 Ene=   0.17442880854229684
Spin= Alpha
Occup=  0.0000
    1        0.0000000000000000
    2        0.0000000000000000
    3        0.0000000000000000
    4        0.0000000000000000
    5        0.0000000000000000
    6        0.0000000000000000
    7        0.0000000000000000
    8        0.0000000000000000
    9       -0.0061830861107139
   10        0.0000000000000000
   11        0.0000000000000000
   12        0.0417237472799882
   13        0.0000000000000000
   14        0.0000000000000000
   15       -0.1266606305398826
   16        0.0000000000000000
   17        0.0000000000000000
   18        0.5686515784384875
   19        0.0000000000000000
   20        0.0000000000000000
   21        0.0000000000000000
   22       -0.0018485935357829
   23        0.0000000000000000
   24        0.0000000000000000
   25        0.0000000000000000
   26        0.0000000000000000
   27        0.0091736546228110
   28        0.0000000000000000
   29        0.0000000000000000
   30        0.0000000000000000
   31        0.0000000000000000
   32        0.0473441825053086
   33        0.0000000000000000
   34        0.0000000000000000
   35        0.0000000000000000
   36        0.0000000000000000
   37       -0.0026433263785461
   38        0.0000000000000000
   39        0.0000000000000000
   40        0.0000000000000000
   41        0.0000000000000000
   42        0.0000000000000000
   43        0.0000000000000000
   44        0.0284316217305385
   45        0.0000000000000000
   46        0.0000000000000000
   47        0.0000000000000000
   48        0.0000000000000000
   49        0.0000000000000000
   50        0.0000000000000000
   51        0.0000000000000000
   52        0.0000000000000000
   53        0.0000000000000000
   54        0.0000000000000000
   55        0.0000000000000000
   56        0.0000000000000000
   57       -0.0061830861107139
   58        0.0000000000000000
   59        0.0000000000000000
   60        0.0417237472799861
   61        0.0000000000000000
   62        0.0000000000000000
   63       -0.1266606305398878
   64        0.0000000000000000
   65        0.0000000000000000
   66        0.5686515784384960
   67        0.0000000000000000
   68        0.0000000000000000
   69        0.0000000000000000
   70        0.0018485935357830
   71        0.0000000000000000
   72        0.0000000000000000
   73        0.0000000000000000
   74        0.0000000000000000
   75       -0.0091736546228091
   76        0.0000000000000000
   77        0.0000000000000000
   78        0.0000000000000000
   79        0.0000000000000000
   80       -0.0473441825053064
   81        0.0000000000000000
   82        0.0000000000000000
   83        0.0000000000000000
   84        0.0000000000000000
   85       -0.0026433263785464
   86        0.0000000000000000
   87        0.0000000000000000
   88        0.0000000000000000
   89        0.0000000000000000
   90        0.0000000000000000
   91        0.0000000000000000
   92        0.0284316217305376
   93        0.0000000000000000
   94        0.0000000000000000
   95        0.0000000000000000
   96        0.0000000000000000
Sym= A
 Ene=   0.17442880854229681
Spin= Alpha
Occup=  0.0000
    1        0.0000000000000000
    2        0.0000000000000000
    3        0.0000000000000000
    4        0.0000000000000000
    5        0.0000000000000000
    6        0.0000000000000000
    7        0.0000000000000000
    8       -0.0061830861107137
    9        0.0000000000000000
   10        0.0000000000000000
   11        0.0417237472799830
   12        0.0000000000000000
   13        0.0000000000000000
   14       -0.1266606305399110
   15        0.0000000000000000
   16        0.0000000000000000
   17        0.5686515784384687
   18        0.0000000000000000
   19        0.0000000000000000
   20        0.0000000000000000
   21       -0.0018485935357832
   22        0.0000000000000000
   23        0.0000000000000000
   24        0.0000000000000000
   25        0.0000000000000000
   26        0.0091736546228042
   27        0.0000000000000000
   28        0.0000000000000000
   29        0.0000000000000000
   30        0.0000000000000000
   31        0.0473441825052948
   32        0.0000000000000000
   33        0.0000000000000000
   34        0.0000000000000000
   35        0.0000000000000000
   36       -0.0026433263785471
   37        0.0000000000000000
   38        0.0000000000000000
   39        0.0000000000000000
   40        0.0000000000000000
   41        0.0000000000000000
   42        0.0000000000000000
   43        0.0284316217305356
   44        0.0000000000000000
   45        0.0000000000000000
   46        0.0000000000000000
   47        0.0000000000000000
   48        0.0000000000000000
   49        0.0000000000000000
   50        0.0000000000000000
   51        0.0000000000000000
   52        0.0000000000000000
   53        0.0000000000000000
   54        0.0000000000000000
   55        0.0000000000000000
   56       -0.0061830861107141
   57        0.0000000000000000
   58        0.0000000000000000
   59        0.0417237472799915
   60        0.0000000000000000
   61        0.0000000000000000
   62       -0.1266606305398597
   63        0.0000000000000000
   64        0.0000000000000000
   65        0.5686515784385149
   66        0.0000000000000000
   67        0.0000000000000000
   68        0.0000000000000000
   69        0.0018485935357826
   70        0.0000000000000000
   71        0.0000000000000000
   72        0.0000000000000000
   73        0.0000000000000000
   74       -0.0091736546228157
   75        0.0000000000000000
   76        0.0000000000000000
   77        0.0000000000000000
   78        0.0000000000000000
   79       -0.0473441825053202
   80        0.0000000000000000
   81        0.0000000000000000
   82        0.0000000000000000
   83        0.0000000000000000
   84       -0.0026433263785454
   85        0.0000000000000000
   86        0.0000000000000000
   87        0.0000000000000000
   88        0.0000000000000000
   89        0.0000000000000000
   90        0.0000000000000000
   91        0.0284316217305404
   92        0.0000000000000000
   93        0.0000000000000000
   94        0.0000000000000000
   95        0.0000000000000000
   96        0.0000000000000000
Sym= A
 Ene=   0.22844944359150282
Spin= Alpha
Occup=  0.0000
    1       -0.0002260887864590
    2       -0.0012823105984736
    3       -0.0087644027335120
    4        0.4038744542415162
    5        0.6321946083026947
    6        0.4849468426614893
    7       -0.4055147664984416
    8        0.0000000000000000
    9        0.0000000000000000
   10        0.0200296743127782
   11        0.0000000000000000
   12        0.0000000000000000
   13        0.0000032632243037
   14        0.0000000000000000
   15        0.0000000000000000
   16       -0.9354033706885115
   17        0.0000000000000000
   18        0.0000000000000000
   19       -3.3262837083189671
   20        0.0046882973329597
   21        0.0000000000000000
   22        0.0000000000000000
   23        0.0000000000000000
   24        0.0000000000000000
   25       -0.1767916837395253
   26        0.0000000000000000
   27        0.0000000000000000
   28        0.0000000000000000
   29        0.0000000000000000
   30       -0.7127864220598980
   31        0.0000000000000000
   32        0.0000000000000000
   33       -0.0000000000000000
   34        0.0000000000000000
   35       -0.0245584966821705
   36        0.0000000000000000
   37        0.0000000000000000
   38       -0.0000000000000000
   39        0.0000000000000000
   40        0.0000000000000000
   41        0.0000000000000000
   42       -0.0951095281392042
   43        0.0000000000000000
   44        0.0000000000000000
   45       -0.0000000000000000
   46        0.0000000000000000
   47        0.0000000000000000
   48        0.0000000000000000
   49       -0.0002260887864589
   50       -0.0012823105984824
   51       -0.0087644027334544
   52        0.4038744542402015
   53        0.6321946082920147
   54        0.4849468427233231
   55       -0.4055147664958246
   56        0.0000000000000000
   57        0.0000000000000000
   58       -0.0200296743127868
   59        0.0000000000000000
   60        0.0000000000000000
   61       -0.0000032632234658
   62        0.0000000000000000
   63        0.0000000000000000
   64        0.9354033706907314
   65        0.0000000000000000
   66        0.0000000000000000
   67        3.3262837083069083
   68        0.0046882973329131
   69        0.0000000000000000
   70        0.0000000000000000
   71        0.0000000000000000
   72        0.0000000000000000
   73       -0.1767916837399370
   74        0.0000000000000000
   75        0.0000000000000000
   76        0.0000000000000000
   77        0.0000000000000000
   78       -0.7127864220614636
   79        0.0000000000000000
   80        0.0000000000000000
   81        0.0000000000000000
   82        0.0000000000000000
   83        0.0245584966821999
   84        0.0000000000000000
   85        0.0000000000000000
   86        0.0000000000000000
   87        0.0000000000000000
   88        0.0000000000000000
   89        0.0000000000000000
   90        0.0951095281395424
   91        0.0000000000000000
   92        0.0000000000000000
   93        0.0000000000000000
   94        0.0000000000000000
   95        0.0000000000000000
   96        0.0000000000000000
Sym= A
 Ene=   0.23343087664872733
Spin= Alpha
Occup=  0.0000
    1        0.0000000000000000
    2        0.0000000000000000
    3        0.0000000000000000
    4        0.0000000000000000
    5        0.0000000000000000
    6        0.0000000000000000
    7        0.0000000000000000
    8        0.0031114911391115
    9        0.0000000000000000
   10        0.0000000000000000
   11       -0.1432804431751959
   12        0.0000000000000000
   13        0.0000000000000000
   14       -1.6677280044691556
   15        0.0000000000000000
   16        0.0000000000000000
   17       -4.3138373075054588
   18        0.0000000000000000
   19        0.0000000000000000
   20        0.0000000000000000
   21       -0.0040405335585988
   22        0.0000000000000000
   23        0.0000000000000000
   24        0.0000000000000000
   25        0.0000000000000000
   26       -0.2546927060001042
   27        0.0000000000000000
   28        0.0000000000000000
   29        0.0000000000000000
   30        0.0000000000000000
   31       -0.9038262732435041
   32        0.0000000000000000
   33        0.0000000000000000
   34        0.0000000000000000
   35        0.0000000000000000
   36       -0.0284785890298525
   37        0.0000000000000000
   38        0.0000000000000000
   39        0.0000000000000000
   40        0.0000000000000000
   41        0.0000000000000000
   42        0.0000000000000000
   43       -0.1210919989426595
   44        0.0000000000000000
   45        0.0000000000000000
   46        0.0000000000000000
   47        0.0000000000000000
   48        0.0000000000000000
   49        0.0000000000000000
   50        0.0000000000000000
   51        0.0000000000000000
   52        0.0000000000000000
   53        0.0000000000000000
   54        0.0000000000000000
   55        0.0000000000000000
   56       -0.0031114911391109
   57        0.0000000000000000
   58        0.0000000000000000
   59        0.1432804431751916
   60        0.0000000000000000
   61        0.0000000000000000
   62        1.6677280044691480
   63        0.0000000000000000
   64        0.0000000000000000
   65        4.3138373075054597
   66        0.0000000000000000
   67        0.0000000000000000