[Molden Format]
[GTO]
    1 0
 s   5 1.00
      33.8700000    1.0000000000
       5.0950000    0.0000000000
       1.1590000    0.0000000000
       0.3258000    0.0000000000
       0.1027000    0.0000000000
 s   5 1.00
      33.8700000    0.0000000000
       5.0950000    1.0000000000
       1.1590000    0.0000000000
       0.3258000    0.0000000000
       0.1027000    0.0000000000
 s   5 1.00
      33.8700000    0.0000000000
       5.0950000    0.0000000000
       1.1590000    1.0000000000
       0.3258000    0.0000000000
       0.1027000    0.0000000000
 s   5 1.00
      33.8700000    0.0000000000
       5.0950000    0.0000000000
       1.1590000    0.0000000000
       0.3258000    1.0000000000
       0.1027000    0.0000000000
 s   5 1.00
      33.8700000    0.0000000000
       5.0950000    0.0000000000
       1.1590000    0.0000000000
       0.3258000    0.0000000000
       0.1027000    1.0000000000
 p   2 1.00
       1.4070000    1.0000000000
       0.3880000    0.0000000000
 p   2 1.00
       1.4070000    0.0000000000
       0.3880000    1.0000000000
 d   1 1.00
       1.0570000    1.0000000000

    2 0
 s   5 1.00
      33.8700000    1.0000000000
       5.0950000    0.0000000000
       1.1590000    0.0000000000
       0.3258000    0.0000000000
       0.1027000    0.0000000000
 s   5 1.00
      33.8700000    0.0000000000
       5.0950000    1.0000000000
       1.1590000    0.0000000000
       0.3258000    0.0000000000
       0.1027000    0.0000000000
 s   5 1.00
      33.8700000    0.0000000000
       5.0950000    0.0000000000
       1.1590000    1.0000000000
       0.3258000    0.0000000000
       0.1027000    0.0000000000
 s   5 1.00
      33.8700000    0.0000000000
       5.0950000    0.0000000000
       1.1590000    0.0000000000
       0.3258000    1.0000000000
       0.1027000    0.0000000000
 s   5 1.00
      33.8700000    0.0000000000
       5.0950000    0.0000000000
       1.1590000    0.0000000000
       0.3258000    0.0000000000
       0.1027000    1.0000000000
 p   2 1.00
       1.4070000    1.0000000000
       0.3880000    0.0000000000
 p   2 1.00
       1.4070000    0.0000000000
       0.3880000    1.0000000000
 d   1 1.00
       1.0570000    1.0000000000

*** Dalton interface to Molden, wave function type :
HF          21Jul22   01:37:45
[Atoms] AU
H          1     1         0.0000000000         0.0000000000         0.058647641
H          2     1         0.0000000000         0.0000000000         1.404552358
[5D7F]
[9G]
[MO]
Sym= A
 Ene=  -0.60357214624831979
Spin= Alpha
Occup=  2.0000
    1        0.0051902346765311
    2        0.0378961345958768
    3        0.1554689117708274
    4        0.2879667775803119
    5        0.1284738166370701
    6        0.0000000000000000
    7        0.0000000000000000
    8        0.0121232101879728
    9        0.0000000000000000
   10        0.0000000000000000
   11        0.0189640100723202
   12        0.0023632530652381
   13        0.0000000000000000
   14        0.0000000000000000
   15        0.0000000000000000
   16        0.0000000000000000
   17        0.0051902346765313
   18        0.0378961345958796
   19        0.1554689117708114
   20        0.2879667775803251
   21        0.1284738166370684
   22        0.0000000000000000
   23        0.0000000000000000
   24       -0.0121232101879616
   25        0.0000000000000000
   26        0.0000000000000000
   27       -0.0189640100723254
   28        0.0023632530652319
   29        0.0000000000000000
   30        0.0000000000000000
   31        0.0000000000000000
   32        0.0000000000000000
Sym= A
 Ene=   0.17106324537261872
Spin= Alpha
Occup=  0.0000
    1       -0.0017384364292713
    2       -0.0082793399206223
    3       -0.0635011632164929
    4        0.3763944240718931
    5       -2.4439832274668110
    6        0.0000000000000000
    7        0.0000000000000000
    8        0.0311989094311376
    9        0.0000000000000000
   10        0.0000000000000000
   11        0.1153030717785724
   12        0.0157432435724457
   13        0.0000000000000000
   14        0.0000000000000000
   15        0.0000000000000000
   16        0.0000000000000000
   17        0.0017384364292711
   18        0.0082793399206220
   19        0.0635011632164938
   20       -0.3763944240718933
   21        2.4439832274668110
   22        0.0000000000000000
   23        0.0000000000000000
   24        0.0311989094311374
   25        0.0000000000000000
   26        0.0000000000000000
   27        0.1153030717785732
   28       -0.0157432435724455
   29        0.0000000000000000
   30        0.0000000000000000
   31        0.0000000000000000
   32        0.0000000000000000
Sym= A
 Ene=   0.29525790202896568
Spin= Alpha
Occup=  0.0000
    1        0.0014903013715625
    2        0.0355312565665081
    3       -0.0381789642824176
    4        0.7863555894750760
    5       -0.8769129373051818
    6        0.0000000000000000
    7        0.0000000000000000
    8        0.0143723634222413
    9        0.0000000000000000
   10        0.0000000000000000
   11       -0.0261569428782734
   12        0.0119720886560371
   13        0.0000000000000000
   14        0.0000000000000000
   15        0.0000000000000000
   16        0.0000000000000000
   17        0.0014903013715626
   18        0.0355312565665094
   19       -0.0381789642824250
   20        0.7863555894747122
   21       -0.8769129373051677
   22        0.0000000000000000
   23        0.0000000000000000
   24       -0.0143723634222372
   25        0.0000000000000000
   26        0.0000000000000000
   27        0.0261569428784379
   28        0.0119720886560308
   29        0.0000000000000000
   30        0.0000000000000000
   31        0.0000000000000000
   32        0.0000000000000000
Sym= A
 Ene=   0.65276676237908526
Spin= Alpha
Occup=  0.0000
    1        0.0029072803847821
    2        0.0409011108654031
    3        0.0486688161186915
    4        2.4314870883315360
    5       -2.3293213128476555
    6        0.0000000000000000
    7        0.0000000000000000
    8        0.0610799257914059
    9        0.0000000000000000
   10        0.0000000000000000
   11        0.2234665951366283
   12        0.0499231931217968
   13        0.0000000000000000
   14        0.0000000000000000
   15        0.0000000000000000
   16        0.0000000000000000
   17       -0.0029072803847819
   18       -0.0409011108654036
   19       -0.0486688161186854
   20       -2.4314870883315445
   21        2.3293213128476600
   22        0.0000000000000000
   23        0.0000000000000000
   24        0.0610799257914061
   25        0.0000000000000000
   26        0.0000000000000000
   27        0.2234665951366290
   28       -0.0499231931217978
   29        0.0000000000000000
   30        0.0000000000000000
   31        0.0000000000000000
   32        0.0000000000000000
Sym= A
 Ene=   0.69573570333658652
Spin= Alpha
Occup=  0.0000
    1        0.0000000000000000
    2        0.0000000000000000
    3        0.0000000000000000
    4        0.0000000000000000
    5        0.0000000000000000
    6        0.0000000000000000
    7       -0.0581671822454913
    8        0.0000000000000000
    9        0.0000000000000000
   10        0.5748128069327506
   11        0.0000000000000000
   12        0.0000000000000000
   13        0.0000000000000000
   14       -0.0078821147257299
   15        0.0000000000000000
   16        0.0000000000000000
   17        0.0000000000000000
   18        0.0000000000000000
   19        0.0000000000000000
   20        0.0000000000000000
   21        0.0000000000000000
   22        0.0000000000000000
   23       -0.0581671822454914
   24        0.0000000000000000
   25        0.0000000000000000
   26        0.5748128069327531
   27        0.0000000000000000
   28        0.0000000000000000
   29        0.0000000000000000
   30        0.0078821147257293
   31        0.0000000000000000
   32        0.0000000000000000
Sym= A
 Ene=   0.69573570333658630
Spin= Alpha
Occup=  0.0000
    1        0.0000000000000000
    2        0.0000000000000000
    3        0.0000000000000000
    4        0.0000000000000000
    5        0.0000000000000000
    6       -0.0581671822454913
    7        0.0000000000000000
    8        0.0000000000000000
    9        0.5748128069327513
   10        0.0000000000000000
   11        0.0000000000000000
   12        0.0000000000000000
   13       -0.0078821147257297
   14        0.0000000000000000
   15        0.0000000000000000
   16        0.0000000000000000
   17        0.0000000000000000
   18        0.0000000000000000
   19        0.0000000000000000
   20        0.0000000000000000
   21        0.0000000000000000
   22       -0.0581671822454913
   23        0.0000000000000000
   24        0.0000000000000000
   25        0.5748128069327523
   26        0.0000000000000000
   27        0.0000000000000000
   28        0.0000000000000000
   29        0.0078821147257296
   30        0.0000000000000000
   31        0.0000000000000000
   32        0.0000000000000000
Sym= A
 Ene=    1.1015505768592009
Spin= Alpha
Occup=  0.0000
    1       -0.0012713319191900
    2       -0.0070406727166531
    3        0.0729209143259051
    4        0.6264924603573171
    5       -0.3482113790518688
    6        0.0000000000000000
    7        0.0000000000000000
    8        0.1044125874191895
    9        0.0000000000000000
   10        0.0000000000000000
   11       -1.1225710046891542
   12       -0.0908264842524493
   13        0.0000000000000000
   14        0.0000000000000000
   15        0.0000000000000000
   16        0.0000000000000000
   17       -0.0012713319191900
   18       -0.0070406727166527
   19        0.0729209143259022
   20        0.6264924603569590
   21       -0.3482113790518618
   22        0.0000000000000000
   23        0.0000000000000000
   24       -0.1044125874191892
   25        0.0000000000000000
   26        0.0000000000000000
   27        1.1225710046893183
   28       -0.0908264842524552
   29        0.0000000000000000
   30        0.0000000000000000
   31        0.0000000000000000
   32        0.0000000000000000
Sym= A
 Ene=    1.1244736099967856
Spin= Alpha
Occup=  0.0000
    1        0.0000000000000000
    2        0.0000000000000000
    3        0.0000000000000000
    4        0.0000000000000000
    5        0.0000000000000000
    6        0.0000000000000000
    7        0.0578286034985111
    8        0.0000000000000000
    9        0.0000000000000000
   10       -1.4751223234446524
   11        0.0000000000000000
   12        0.0000000000000000
   13        0.0000000000000000
   14       -0.1238348657478878
   15        0.0000000000000000
   16        0.0000000000000000
   17        0.0000000000000000
   18        0.0000000000000000
   19        0.0000000000000000
   20        0.0000000000000000
   21        0.0000000000000000
   22        0.0000000000000000
   23       -0.0578286034985112
   24        0.0000000000000000
   25        0.0000000000000000
   26        1.4751223234446520
   27        0.0000000000000000
   28        0.0000000000000000
   29        0.0000000000000000
   30       -0.1238348657478875
   31        0.0000000000000000
   32        0.0000000000000000
Sym= A
 Ene=    1.1244736099967862
Spin= Alpha
Occup=  0.0000
    1        0.0000000000000000
    2        0.0000000000000000
    3        0.0000000000000000
    4        0.0000000000000000
    5        0.0000000000000000
    6        0.0578286034985109
    7        0.0000000000000000
    8        0.0000000000000000
    9       -1.4751223234446516
   10        0.0000000000000000
   11        0.0000000000000000
   12        0.0000000000000000
   13       -0.1238348657478869
   14        0.0000000000000000
   15        0.0000000000000000
   16        0.0000000000000000
   17        0.0000000000000000
   18        0.0000000000000000
   19        0.0000000000000000
   20        0.0000000000000000
   21        0.0000000000000000
   22       -0.0578286034985109
   23        0.0000000000000000
   24        0.0000000000000000
   25        1.4751223234446516
   26        0.0000000000000000
   27        0.0000000000000000
   28        0.0000000000000000
   29       -0.1238348657478863
   30        0.0000000000000000
   31        0.0000000000000000
   32        0.0000000000000000
Sym= A
 Ene=    1.5217567286576261
Spin= Alpha
Occup=  0.0000
    1       -0.0017493996239575
    2        0.0368010271879726
    3       -0.2717319874539958
    4      -15.0242608261937676
    5        0.4831752012133744
    6        0.0000000000000000
    7        0.0000000000000000
    8       -0.2206699361882986
    9        0.0000000000000000
   10        0.0000000000000000
   11       -6.8084758320867715
   12       -0.3487949327123759
   13        0.0000000000000000
   14        0.0000000000000000
   15        0.0000000000000000
   16        0.0000000000000000
   17        0.0017493996239551
   18       -0.0368010271879694
   19        0.2717319874537944
   20       15.0242608261939843
   21       -0.4831752012134643
   22        0.0000000000000000
   23        0.0000000000000000
   24       -0.2206699361882746
   25        0.0000000000000000
   26        0.0000000000000000
   27       -6.8084758320868195
   28        0.3487949327123998
   29        0.0000000000000000
   30        0.0000000000000000
   31        0.0000000000000000
   32        0.0000000000000000
Sym= A
 Ene=    1.9307769049091339
Spin= Alpha
Occup=  0.0000
    1        0.0131232328280521
    2       -0.0392382907893672
    3        1.3257101215549183
    4       -1.2567224469943841
    5        0.4350169678002758
    6        0.0000000000000000
    7        0.0000000000000000
    8        0.1054570671031822
    9        0.0000000000000000
   10        0.0000000000000000
   11       -0.4108807657705869
   12       -0.1232548180492021
   13        0.0000000000000000
   14        0.0000000000000000
   15        0.0000000000000000
   16        0.0000000000000000
   17        0.0131232328280523
   18       -0.0392382907893702
   19        1.3257101215549423
   20       -1.2567224469922158
   21        0.4350169678002025
   22        0.0000000000000000
   23        0.0000000000000000
   24       -0.1054570671032005
   25        0.0000000000000000
   26        0.0000000000000000
   27        0.4108807657696039
   28       -0.1232548180491675
   29        0.0000000000000000
   30        0.0000000000000000
   31        0.0000000000000000
   32        0.0000000000000000
Sym= A
 Ene=    2.2769766517787486
Spin= Alpha
Occup=  0.0000
    1        0.0123243882672519
    2        0.0144377855105805
    3        0.9101873009897008
    4       -2.0909921392775535
    5        1.3221189019603981
    6        0.0000000000000000
    7        0.0000000000000000
    8       -0.3571695245886757
    9        0.0000000000000000
   10        0.0000000000000000
   11        0.0004729321723562
   12       -0.2068130827423873
   13        0.0000000000000000
   14        0.0000000000000000
   15        0.0000000000000000
   16        0.0000000000000000
   17       -0.0123243882672518
   18       -0.0144377855105800
   19       -0.9101873009896947
   20        2.0909921392775432
   21       -1.3221189019603932
   22        0.0000000000000000
   23        0.0000000000000000
   24       -0.3571695245886751
   25        0.0000000000000000
   26        0.0000000000000000
   27        0.0004729321723546
   28        0.2068130827423895
   29        0.0000000000000000
   30        0.0000000000000000
   31        0.0000000000000000
   32        0.0000000000000000
Sym= A
 Ene=    3.1795784450196396
Spin= Alpha
Occup=  0.0000
    1        0.0000000000000000
    2        0.0000000000000000
    3        0.0000000000000000
    4        0.0000000000000000
    5        0.0000000000000000
    6        0.0000000000000000
    7        0.0000000000000000
    8        0.0000000000000000
    9        0.0000000000000000
   10        0.0000000000000000
   11        0.0000000000000000
   12        0.0000000000000000
   13        0.0000000000000000
   14        0.0000000000000000
   15        0.0000000000000000
   16        0.6010791088792109
   17        0.0000000000000000
   18        0.0000000000000000
   19        0.0000000000000000
   20        0.0000000000000000
   21        0.0000000000000000
   22        0.0000000000000000
   23        0.0000000000000000
   24        0.0000000000000000
   25        0.0000000000000000
   26        0.0000000000000000
   27        0.0000000000000000
   28        0.0000000000000000
   29        0.0000000000000000
   30        0.0000000000000000
   31        0.0000000000000000
   32        0.6010791088792109
Sym= A
 Ene=    3.1795784450196396
Spin= Alpha
Occup=  0.0000
    1        0.0000000000000000
    2        0.0000000000000000
    3        0.0000000000000000
    4        0.0000000000000000
    5        0.0000000000000000
    6        0.0000000000000000
    7        0.0000000000000000
    8        0.0000000000000000
    9        0.0000000000000000
   10        0.0000000000000000
   11        0.0000000000000000
   12        0.0000000000000000
   13        0.0000000000000000
   14        0.0000000000000000
   15        0.6010791088792108
   16        0.0000000000000000
   17        0.0000000000000000
   18        0.0000000000000000
   19        0.0000000000000000
   20        0.0000000000000000
   21        0.0000000000000000
   22        0.0000000000000000
   23        0.0000000000000000
   24        0.0000000000000000
   25        0.0000000000000000
   26        0.0000000000000000
   27        0.0000000000000000
   28        0.0000000000000000
   29        0.0000000000000000
   30        0.0000000000000000
   31        0.6010791088792108
   32        0.0000000000000000
Sym= A
 Ene=    3.4283886712929439
Spin= Alpha
Occup=  0.0000
    1        0.0000000000000000
    2        0.0000000000000000
    3        0.0000000000000000
    4        0.0000000000000000
    5        0.0000000000000000
    6        0.0000000000000000
    7       -0.6094550039766017
    8        0.0000000000000000
    9        0.0000000000000000
   10        0.3640538523183962
   11        0.0000000000000000
   12        0.0000000000000000
   13        0.0000000000000000
   14       -0.2920116257959264
   15        0.0000000000000000
   16        0.0000000000000000
   17        0.0000000000000000
   18        0.0000000000000000
   19        0.0000000000000000
   20        0.0000000000000000
   21        0.0000000000000000
   22        0.0000000000000000
   23       -0.6094550039766023
   24        0.0000000000000000
   25        0.0000000000000000
   26        0.3640538523183970
   27        0.0000000000000000
   28        0.0000000000000000
   29        0.0000000000000000
   30        0.2920116257959255
   31        0.0000000000000000
   32        0.0000000000000000
Sym= A
 Ene=    3.4283886712929434
Spin= Alpha
Occup=  0.0000
    1        0.0000000000000000
    2        0.0000000000000000
    3        0.0000000000000000
    4        0.0000000000000000
    5        0.0000000000000000
    6       -0.6094550039766025
    7        0.0000000000000000
    8        0.0000000000000000
    9        0.3640538523183985
   10        0.0000000000000000
   11        0.0000000000000000
   12        0.0000000000000000
   13       -0.2920116257959251
   14        0.0000000000000000
   15        0.0000000000000000
   16        0.0000000000000000
   17        0.0000000000000000
   18        0.0000000000000000
   19        0.0000000000000000
   20        0.0000000000000000
   21        0.0000000000000000
   22       -0.6094550039766014
   23        0.0000000000000000
   24        0.0000000000000000
   25        0.3640538523183946
   26        0.0000000000000000
   27        0.0000000000000000
   28        0.0000000000000000
   29        0.2920116257959271
   30        0.0000000000000000
   31        0.0000000000000000
   32        0.0000000000000000
Sym= A
 Ene=    3.6764258284477198
Spin= Alpha
Occup=  0.0000
    1        0.0035867436122859
    2       -0.0101322434994400
    3       -0.1544694249809941
    4       -0.2395809249761920
    5        0.1573124322612607
    6        0.0000000000000000
    7        0.0000000000000000
    8       -0.7923919314139335
    9        0.0000000000000000
   10        0.0000000000000000
   11        0.9355233060714336
   12        0.5316351789035131
   13        0.0000000000000000
   14        0.0000000000000000
   15        0.0000000000000000
   16        0.0000000000000000
   17        0.0035867436122859
   18       -0.0101322434994380
   19       -0.1544694249809909
   20       -0.2395809249763582
   21        0.1573124322612676
   22        0.0000000000000000
   23        0.0000000000000000
   24        0.7923919314139398
   25        0.0000000000000000
   26        0.0000000000000000
   27       -0.9355233060713628
   28        0.5316351789035157
   29        0.0000000000000000
   30        0.0000000000000000
   31        0.0000000000000000
   32        0.0000000000000000
Sym= A
 Ene=    3.8676010522790065
Spin= Alpha
Occup=  0.0000
    1        0.0000000000000000
    2        0.0000000000000000
    3        0.0000000000000000
    4        0.0000000000000000
    5        0.0000000000000000
    6        0.0000000000000000
    7        0.4255284204057727
    8        0.0000000000000000
    9        0.0000000000000000
   10       -1.1916904382434912
   11        0.0000000000000000
   12        0.0000000000000000
   13        0.0000000000000000
   14       -0.8964020510287832
   15        0.0000000000000000
   16        0.0000000000000000
   17        0.0000000000000000
   18        0.0000000000000000
   19        0.0000000000000000
   20        0.0000000000000000
   21        0.0000000000000000
   22        0.0000000000000000
   23       -0.4255284204057666
   24        0.0000000000000000
   25        0.0000000000000000
   26        1.1916904382434885
   27        0.0000000000000000
   28        0.0000000000000000
   29        0.0000000000000000
   30       -0.8964020510287786
   31        0.0000000000000000
   32        0.0000000000000000
Sym= A
 Ene=    3.8676010522790101
Spin= Alpha
Occup=  0.0000
    1        0.0000000000000000
    2        0.0000000000000000
    3        0.0000000000000000
    4        0.0000000000000000
    5        0.0000000000000000
    6        0.4255284204057717
    7        0.0000000000000000
    8        0.0000000000000000
    9       -1.1916904382434927
   10        0.0000000000000000
   11        0.0000000000000000
   12        0.0000000000000000
   13       -0.8964020510287836
   14        0.0000000000000000
   15        0.0000000000000000
   16        0.0000000000000000
   17        0.0000000000000000
   18        0.0000000000000000
   19        0.0000000000000000
   20        0.0000000000000000
   21        0.0000000000000000
   22       -0.4255284204057687
   23        0.0000000000000000
   24        0.0000000000000000
   25        1.1916904382434921
   26        0.0000000000000000
   27        0.0000000000000000
   28        0.0000000000000000
   29       -0.8964020510287788
   30        0.0000000000000000
   31        0.0000000000000000
   32        0.0000000000000000
Sym= A
 Ene=    4.1148751758262954
Spin= Alpha
Occup=  0.0000
    1        0.0000000000000000
    2        0.0000000000000000
    3        0.0000000000000000
    4        0.0000000000000000
    5        0.0000000000000000
    6        0.0000000000000000
    7        0.0000000000000000
    8        0.0000000000000000
    9        0.0000000000000000
   10        0.0000000000000000
   11        0.0000000000000000
   12        0.0000000000000000
   13        0.0000000000000000
   14        0.0000000000000000
   15       -0.9008690664658129
   16        0.0000000000000000
   17        0.0000000000000000
   18        0.0000000000000000
   19        0.0000000000000000
   20        0.0000000000000000
   21        0.0000000000000000
   22        0.0000000000000000
   23        0.0000000000000000
   24        0.0000000000000000
   25        0.0000000000000000
   26        0.0000000000000000
   27        0.0000000000000000
   28        0.0000000000000000
   29        0.0000000000000000
   30        0.0000000000000000
   31        0.9008690664658129
   32        0.0000000000000000
Sym= A
 Ene=    4.1148751758262971
Spin= Alpha
Occup=  0.0000
    1        0.0000000000000000
    2        0.0000000000000000
    3        0.0000000000000000
    4        0.0000000000000000
    5        0.0000000000000000
    6        0.0000000000000000
    7        0.0000000000000000
    8        0.0000000000000000
    9        0.0000000000000000
   10        0.0000000000000000
   11        0.0000000000000000
   12        0.0000000000000000
   13        0.0000000000000000
   14        0.0000000000000000
   15        0.0000000000000000
   16       -0.9008690664658131
   17        0.0000000000000000
   18        0.0000000000000000
   19        0.0000000000000000
   20        0.0000000000000000
   21        0.0000000000000000
   22        0.0000000000000000
   23        0.0000000000000000
   24        0.0000000000000000
   25        0.0000000000000000
   26        0.0000000000000000
   27        0.0000000000000000
   28        0.0000000000000000
   29        0.0000000000000000
   30        0.0000000000000000
   31        0.0000000000000000
   32        0.9008690664658131
Sym= A
 Ene=    4.1416440261396481
Spin= Alpha
Occup=  0.0000
    1        0.0000000000000000
    2        0.0000000000000000
    3        0.0000000000000000
    4        0.0000000000000000
    5        0.0000000000000000
    6        0.0000000000000000
    7        0.6338050936623326
    8        0.0000000000000000
    9        0.0000000000000000
   10       -0.2338664526003696
   11        0.0000000000000000
   12        0.0000000000000000
   13        0.0000000000000000
   14       -0.5947170872173000
   15        0.0000000000000000
   16        0.0000000000000000
   17        0.0000000000000000
   18        0.0000000000000000
   19        0.0000000000000000
   20        0.0000000000000000
   21        0.0000000000000000
   22        0.0000000000000000
   23        0.6338050936623366
   24        0.0000000000000000
   25        0.0000000000000000
   26       -0.2338664526003792
   27        0.0000000000000000
   28        0.0000000000000000
   29        0.0000000000000000
   30        0.5947170872173068
   31        0.0000000000000000
   32        0.0000000000000000
Sym= A
 Ene=    4.1416440261396499
Spin= Alpha
Occup=  0.0000
    1        0.0000000000000000
    2        0.0000000000000000
    3        0.0000000000000000
    4        0.0000000000000000
    5        0.0000000000000000
    6        0.6338050936623320
    7        0.0000000000000000
    8        0.0000000000000000
    9       -0.2338664526003706
   10        0.0000000000000000
   11        0.0000000000000000
   12        0.0000000000000000
   13       -0.5947170872173021
   14        0.0000000000000000
   15        0.0000000000000000
   16        0.0000000000000000
   17        0.0000000000000000
   18        0.0000000000000000
   19        0.0000000000000000
   20        0.0000000000000000
   21        0.0000000000000000
   22        0.6338050936623379
   23        0.0000000000000000
   24        0.0000000000000000
   25       -0.2338664526003787
   26        0.0000000000000000
   27        0.0000000000000000
   28        0.0000000000000000
   29        0.5947170872173049
   30        0.0000000000000000
   31        0.0000000000000000
   32        0.0000000000000000
Sym= A
 Ene=    4.3496300963406567
Spin= Alpha
Occup=  0.0000
    1       -0.0090573559118574
    2        0.1142043255261056
    3       -1.6197680580043508
    4       -9.3324128226024605
    5        0.0937139684173004
    6        0.0000000000000000
    7        0.0000000000000000
    8       -0.5348461326314170
    9        0.0000000000000000
   10        0.0000000000000000
   11       -4.5545603226408016
   12       -1.3472170071750338
   13        0.0000000000000000
   14        0.0000000000000000
   15        0.0000000000000000
   16        0.0000000000000000
   17        0.0090573559118567
   18       -0.1142043255261031
   19        1.6197680580043194
   20        9.3324128226024765
   21       -0.0937139684173014
   22        0.0000000000000000
   23        0.0000000000000000
   24       -0.5348461326314260
   25        0.0000000000000000
   26        0.0000000000000000
   27       -4.5545603226408122
   28        1.3472170071750589
   29        0.0000000000000000
   30        0.0000000000000000
   31        0.0000000000000000
   32        0.0000000000000000
Sym= A
 Ene=    5.3145053716772654
Spin= Alpha
Occup=  0.0000
    1        0.0046274397008470
    2       -0.1064792012834938
    3        1.3726611313982813
    4       -0.7090009444188610
    5        0.1196692151054388
    6        0.0000000000000000
    7        0.0000000000000000
    8       -0.1178118070856891
    9        0.0000000000000000
   10        0.0000000000000000
   11       -0.6907536195876596
   12       -1.1671013970957862
   13        0.0000000000000000
   14        0.0000000000000000
   15        0.0000000000000000
   16        0.0000000000000000
   17        0.0046274397008471
   18       -0.1064792012834973
   19        1.3726611313983039
   20       -0.7090009444186239
   21        0.1196692151054310
   22        0.0000000000000000
   23        0.0000000000000000
   24        0.1178118070856916
   25        0.0000000000000000
   26        0.0000000000000000
   27        0.6907536195875460
   28       -1.1671013970957596
   29        0.0000000000000000
   30        0.0000000000000000
   31        0.0000000000000000
   32        0.0000000000000000
Sym= A
 Ene=    5.8446113240256325
Spin= Alpha
Occup=  0.0000
    1        0.0000000000000000
    2        0.0000000000000000
    3        0.0000000000000000
    4        0.0000000000000000
    5        0.0000000000000000
    6        0.0000000000000000
    7       -1.1959115937660676
    8        0.0000000000000000
    9        0.0000000000000000