[Molden Format]
[GTO]
    1 0
 s   3 1.00
       3.4252509    1.0000000000
       0.6239137    0.0000000000
       0.1688554    0.0000000000
 s   3 1.00
       3.4252509    0.0000000000
       0.6239137    1.0000000000
       0.1688554    0.0000000000
 s   3 1.00
       3.4252509    0.0000000000
       0.6239137    0.0000000000
       0.1688554    1.0000000000

    2 0
 s   3 1.00
       3.4252509    1.0000000000
       0.6239137    0.0000000000
       0.1688554    0.0000000000
 s   3 1.00
       3.4252509    0.0000000000
       0.6239137    1.0000000000
       0.1688554    0.0000000000
 s   3 1.00
       3.4252509    0.0000000000
       0.6239137    0.0000000000
       0.1688554    1.0000000000

*** Dalton interface to Molden, wave function type :
HF          26Jul22   17:12:08
[Atoms] AU
H          1     1         0.0000000000         0.0000000000         0.058647641
H          2     1         0.0000000000         0.0000000000         1.404552358
[5D7F]
[9G]
[MO]
Sym= A
 Ene=  -0.59955326839495560
Spin= Alpha
Occup=  2.0000
    1        0.0753083040090806
    2        0.2809182527297803
    3        0.2580878915106037
    4        0.0753083040090800
    5        0.2809182527297815
    6        0.2580878915106006
Sym= A
 Ene=   0.25520283567459012
Spin= Alpha
Occup=  0.0000
    1       -0.0438557347405792
    2       -0.0316242886575410
    3       -1.8154287599331309
    4        0.0438557347405787
    5        0.0316242886575413
    6        1.8154287599331316
Sym= A
 Ene=   0.64063084528735248
Spin= Alpha
Occup=  0.0000
    1        0.0227012944543755
    2        0.8063038846090279
    3       -0.7799147081677076
    4        0.0227012944543758
    5        0.8063038846090259
    6       -0.7799147081677036
Sym= A
 Ene=    1.1458128210971879
Spin= Alpha
Occup=  0.0000
    1        0.0314242149382516
    2        1.3612522972789671
    3       -1.6516558492438789
    4       -0.0314242149382514
    5       -1.3612522972789682
    6        1.6516558492438802
Sym= A
 Ene=    5.4560459112887800
Spin= Alpha
Occup=  0.0000
    1        0.9370940342947126
    2       -1.1550476627972328
    3        0.7473673742846646
    4       -0.9370940342947163
    5        1.1550476627972361
    6       -0.7473673742846664
Sym= A
 Ene=    5.7198385126300506
Spin= Alpha
Occup=  0.0000
    1       -0.9871283023475915
    2        0.8446257850450180
    3       -0.3141884096409707
    4       -0.9871283023475881
    5        0.8446257850450131
    6       -0.3141884096409679
