[Molden Format]
[GTO]
    1 0
 s   2 1.00
       1.3097564    1.0000000000
       0.2331360    0.0000000000
 s   2 1.00
       1.3097564    0.0000000000
       0.2331360    1.0000000000

    2 0
 s   2 1.00
       1.3097564    1.0000000000
       0.2331360    0.0000000000
 s   2 1.00
       1.3097564    0.0000000000
       0.2331360    1.0000000000

[SCFCONV]
scf-first  1  THROUGH   5
       -1.0785237081
       -1.0949299685
       -1.0957282604
       -1.0957287763
       -1.0957287763
[TITLE]
*** Dalton interface to Molden, wave function type : HF            30Nov22   15:
[Atoms] AU
H          1     1         0.0000000000         0.0000000000         0.058647641
H          2     1         0.0000000000         0.0000000000         1.404552358
[5D7F]
[9G]
[MO]
Sym= A
 Ene=  -0.58807001125673897
Spin= Alpha
Occup=  2.0000
           1  0.21523813375244608
           2  0.38533477120627846
           3  0.21523813375244644
           4  0.38533477120627674
Sym= A
 Ene=   0.32996444555357213
Spin= Alpha
Occup=  0.0000
           1  -8.0531259237390601E-002
           2  -1.5379662759530168
           3   8.0531259237390629E-002
           4   1.5379662759530173
Sym= A
 Ene=    1.3157953981879698
Spin= Alpha
Occup=  0.0000
           1  0.80547383616231905
           2 -0.59407524960468472
           3  0.80547383616231949
           4 -0.59407524960468461
Sym= A
 Ene=    1.9696168370092018
Spin= Alpha
Occup=  0.0000
           1  0.97783925240149316
           2  -1.0712671538115000
           3 -0.97783925240149272
           4   1.0712671538114997
[End of Molden output from Dalton]
