[Molden Format]
[GTO]
    1 0
 s   2 1.00
       1.3097564    1.0000000000
       0.2331360    0.0000000000
 s   2 1.00
       1.3097564    0.0000000000
       0.2331360    1.0000000000

    2 0
 s   2 1.00
       1.3097564    1.0000000000
       0.2331360    0.0000000000
 s   2 1.00
       1.3097564    0.0000000000
       0.2331360    1.0000000000

[SCFCONV]
scf-first  1  THROUGH   5
       -1.0785237082
       -1.0949299685
       -1.0957282604
       -1.0957287763
       -1.0957287763
[TITLE]
*** Dalton interface to Molden, wave function type : HF             3Jun22   00:
[Atoms] AU
H          1     1         0.0000000000         0.0000000000         0.058647641
H          2     1         0.0000000000         0.0000000000         1.404552358
[5D7F]
[9G]
[MO]
Sym= A
Ene=   -0.5881
Spin= Alpha
Occup=  2.0000
    1        0.215238
    2        0.385335
    3        0.215238
    4        0.385335
Sym= A
Ene=    0.3300
Spin= Alpha
Occup=  0.0000
    1       -0.080531
    2       -1.537966
    3        0.080531
    4        1.537966
Sym= A
Ene=    1.3158
Spin= Alpha
Occup=  0.0000
    1        0.805474
    2       -0.594075
    3        0.805474
    4       -0.594075
Sym= A
Ene=    1.9696
Spin= Alpha
Occup=  0.0000
    1        0.977839
    2       -1.071267
    3       -0.977839
    4        1.071267
[End of Molden output from Dalton]
