[Molden Format]
[GTO]
    1 0
 s   1 1.00
       1.3097564    1.0000000000

    2 0
 s   1 1.00
       1.3097564    1.0000000000

*** Dalton interface to Molden, wave function type :
HF          25Jun22   21:10:55
[Atoms] AU
H          1     1         0.0000000000         0.0000000000         0.058647641
H          2     1         0.0000000000         0.0000000000         1.404552358
[5D7F]
[9G]
[MO]
Sym= A
 Ene=    7.1496255443734669E-002
Spin= Alpha
Occup=  2.0000
    1        0.6189006553661021
    2        0.6189006553661016
Sym= A
 Ene=    1.7357588730589875
Spin= Alpha
Occup=  0.0000
    1       -0.8484046860085968
    2        0.8484046860085970
