[Molden Format]
[GTO]
    1 0
 s  12 1.00
    6103.2899000    1.0000000000
     923.6974300    0.0000000000
     270.6015000    0.0000000000
     202.5203100    0.0000000000
      58.2535700    0.0000000000
      19.7614200    0.0000000000
      18.4693300    0.0000000000
       6.8217520    0.0000000000
       2.2916290    0.0000000000
       2.1312060    0.0000000000
       0.4993540    0.0000000000
       0.1647640    0.0000000000
 s  12 1.00
    6103.2899000    0.0000000000
     923.6974300    1.0000000000
     270.6015000    0.0000000000
     202.5203100    0.0000000000
      58.2535700    0.0000000000
      19.7614200    0.0000000000
      18.4693300    0.0000000000
       6.8217520    0.0000000000
       2.2916290    0.0000000000
       2.1312060    0.0000000000
       0.4993540    0.0000000000
       0.1647640    0.0000000000
 s  12 1.00
    6103.2899000    0.0000000000
     923.6974300    0.0000000000
     270.6015000    1.0000000000
     202.5203100    0.0000000000
      58.2535700    0.0000000000
      19.7614200    0.0000000000
      18.4693300    0.0000000000
       6.8217520    0.0000000000
       2.2916290    0.0000000000
       2.1312060    0.0000000000
       0.4993540    0.0000000000
       0.1647640    0.0000000000
 s  12 1.00
    6103.2899000    0.0000000000
     923.6974300    0.0000000000
     270.6015000    0.0000000000
     202.5203100    1.0000000000
      58.2535700    0.0000000000
      19.7614200    0.0000000000
      18.4693300    0.0000000000
       6.8217520    0.0000000000
       2.2916290    0.0000000000
       2.1312060    0.0000000000
       0.4993540    0.0000000000
       0.1647640    0.0000000000
 s  12 1.00
    6103.2899000    0.0000000000
     923.6974300    0.0000000000
     270.6015000    0.0000000000
     202.5203100    0.0000000000
      58.2535700    1.0000000000
      19.7614200    0.0000000000
      18.4693300    0.0000000000
       6.8217520    0.0000000000
       2.2916290    0.0000000000
       2.1312060    0.0000000000
       0.4993540    0.0000000000
       0.1647640    0.0000000000
 s  12 1.00
    6103.2899000    0.0000000000
     923.6974300    0.0000000000
     270.6015000    0.0000000000
     202.5203100    0.0000000000
      58.2535700    0.0000000000
      19.7614200    1.0000000000
      18.4693300    0.0000000000
       6.8217520    0.0000000000
       2.2916290    0.0000000000
       2.1312060    0.0000000000
       0.4993540    0.0000000000
       0.1647640    0.0000000000
 s  12 1.00
    6103.2899000    0.0000000000
     923.6974300    0.0000000000
     270.6015000    0.0000000000
     202.5203100    0.0000000000
      58.2535700    0.0000000000
      19.7614200    0.0000000000
      18.4693300    1.0000000000
       6.8217520    0.0000000000
       2.2916290    0.0000000000
       2.1312060    0.0000000000
       0.4993540    0.0000000000
       0.1647640    0.0000000000
 s  12 1.00
    6103.2899000    0.0000000000
     923.6974300    0.0000000000
     270.6015000    0.0000000000
     202.5203100    0.0000000000
      58.2535700    0.0000000000
      19.7614200    0.0000000000
      18.4693300    0.0000000000
       6.8217520    1.0000000000
       2.2916290    0.0000000000
       2.1312060    0.0000000000
       0.4993540    0.0000000000
       0.1647640    0.0000000000
 s  12 1.00
    6103.2899000    0.0000000000
     923.6974300    0.0000000000
     270.6015000    0.0000000000
     202.5203100    0.0000000000
      58.2535700    0.0000000000
      19.7614200    0.0000000000
      18.4693300    0.0000000000
       6.8217520    0.0000000000
       2.2916290    1.0000000000
       2.1312060    0.0000000000
       0.4993540    0.0000000000
       0.1647640    0.0000000000
 s  12 1.00
    6103.2899000    0.0000000000
     923.6974300    0.0000000000
     270.6015000    0.0000000000
     202.5203100    0.0000000000
      58.2535700    0.0000000000
      19.7614200    0.0000000000
      18.4693300    0.0000000000
       6.8217520    0.0000000000
       2.2916290    0.0000000000
       2.1312060    1.0000000000
       0.4993540    0.0000000000
       0.1647640    0.0000000000
 s  12 1.00
    6103.2899000    0.0000000000
     923.6974300    0.0000000000
     270.6015000    0.0000000000
     202.5203100    0.0000000000
      58.2535700    0.0000000000
      19.7614200    0.0000000000
      18.4693300    0.0000000000
       6.8217520    0.0000000000
       2.2916290    0.0000000000
       2.1312060    0.0000000000
       0.4993540    1.0000000000
       0.1647640    0.0000000000
 s  12 1.00
    6103.2899000    0.0000000000
     923.6974300    0.0000000000
     270.6015000    0.0000000000
     202.5203100    0.0000000000
      58.2535700    0.0000000000
      19.7614200    0.0000000000
      18.4693300    0.0000000000
       6.8217520    0.0000000000
       2.2916290    0.0000000000
       2.1312060    0.0000000000
       0.4993540    0.0000000000
       0.1647640    1.0000000000
 p   9 1.00
     270.6015000    1.0000000000
      58.2535700    0.0000000000
      19.7614200    0.0000000000
      18.4693300    0.0000000000
       6.8217520    0.0000000000
       2.2916290    0.0000000000
       2.1312060    0.0000000000
       0.4993540    0.0000000000
       0.1647640    0.0000000000
 p   9 1.00
     270.6015000    0.0000000000
      58.2535700    1.0000000000
      19.7614200    0.0000000000
      18.4693300    0.0000000000
       6.8217520    0.0000000000
       2.2916290    0.0000000000
       2.1312060    0.0000000000
       0.4993540    0.0000000000
       0.1647640    0.0000000000
 p   9 1.00
     270.6015000    0.0000000000
      58.2535700    0.0000000000
      19.7614200    1.0000000000
      18.4693300    0.0000000000
       6.8217520    0.0000000000
       2.2916290    0.0000000000
       2.1312060    0.0000000000
       0.4993540    0.0000000000
       0.1647640    0.0000000000
 p   9 1.00
     270.6015000    0.0000000000
      58.2535700    0.0000000000
      19.7614200    0.0000000000
      18.4693300    1.0000000000
       6.8217520    0.0000000000
       2.2916290    0.0000000000
       2.1312060    0.0000000000
       0.4993540    0.0000000000
       0.1647640    0.0000000000
 p   9 1.00
     270.6015000    0.0000000000
      58.2535700    0.0000000000
      19.7614200    0.0000000000
      18.4693300    0.0000000000
       6.8217520    1.0000000000
       2.2916290    0.0000000000
       2.1312060    0.0000000000
       0.4993540    0.0000000000
       0.1647640    0.0000000000
 p   9 1.00
     270.6015000    0.0000000000
      58.2535700    0.0000000000
      19.7614200    0.0000000000
      18.4693300    0.0000000000
       6.8217520    0.0000000000
       2.2916290    1.0000000000
       2.1312060    0.0000000000
       0.4993540    0.0000000000
       0.1647640    0.0000000000
 p   9 1.00
     270.6015000    0.0000000000
      58.2535700    0.0000000000
      19.7614200    0.0000000000
      18.4693300    0.0000000000
       6.8217520    0.0000000000
       2.2916290    0.0000000000
       2.1312060    1.0000000000
       0.4993540    0.0000000000
       0.1647640    0.0000000000
 p   9 1.00
     270.6015000    0.0000000000
      58.2535700    0.0000000000
      19.7614200    0.0000000000
      18.4693300    0.0000000000
       6.8217520    0.0000000000
       2.2916290    0.0000000000
       2.1312060    0.0000000000
       0.4993540    1.0000000000
       0.1647640    0.0000000000
 p   9 1.00
     270.6015000    0.0000000000
      58.2535700    0.0000000000
      19.7614200    0.0000000000
      18.4693300    0.0000000000
       6.8217520    0.0000000000
       2.2916290    0.0000000000
       2.1312060    0.0000000000
       0.4993540    0.0000000000
       0.1647640    1.0000000000
 d   3 1.00
      33.9650970    1.0000000000
       8.9008310    0.0000000000
       2.4284360    0.0000000000
 d   3 1.00
      33.9650970    0.0000000000
       8.9008310    1.0000000000
       2.4284360    0.0000000000
 d   3 1.00
      33.9650970    0.0000000000
       8.9008310    0.0000000000
       2.4284360    1.0000000000

    2 0
 s   3 1.00
       5.4471780    1.0000000000
       0.8245470    0.0000000000
       0.1831920    0.0000000000
 s   3 1.00
       5.4471780    0.0000000000
       0.8245470    1.0000000000
       0.1831920    0.0000000000
 s   3 1.00
       5.4471780    0.0000000000
       0.8245470    0.0000000000
       0.1831920    1.0000000000

*** Dalton interface to Molden, wave function type :
HF          28Aug22   16:42:20
[Atoms] AU
Br         1    35         0.0000000000         0.0000000000         0.000000000
H          2     1         0.0000000000         0.0000000000         2.673017550
[5D7F]
[9G]
[MO]
Sym= A
 Ene=   -488.22220715226410
Spin= Alpha
Occup=  2.0000
    1        0.0625546623982455
    2        0.3423308129708688
    3        0.2852354026201509
    4        0.3131901900803681
    5        0.1934532729555498
    6       -0.8356266700367562
    7        0.8140107950671768
    8       -0.0450470449848346
    9        0.1597626793826327
   10       -0.1469483044768485
   11        0.0029562785409319
   12       -0.0009643701507263
   13        0.0000000000000000
   14       -0.0000000000000000
   15        0.0000060221931493
   16        0.0000000000000000
   17       -0.0000000000000000
   18        0.0000125648859856
   19        0.0000000000000000
   20       -0.0000000000000000
   21       -0.0002985541864501
   22       -0.0000000000000000
   23        0.0000000000000000
   24        0.0003164532570885
   25       -0.0000000000000000
   26        0.0000000000000000
   27       -0.0000575401961002
   28       -0.0000000000000000
   29        0.0000000000000000
   30        0.0007365430866712
   31        0.0000000000000000
   32       -0.0000000000000000
   33       -0.0007378687335054
   34        0.0000000000000000
   35       -0.0000000000000000
   36        0.0000802457578754
   37        0.0000000000000000
   38       -0.0000000000000000
   39       -0.0001530305709742
   40       -0.0000003724040666
   41       -0.0000000000000000
   42       -0.0000000000000000
   43        0.0000000000000000
   44       -0.0000000000000000
   45        0.0000022601821217
   46       -0.0000000000000001
   47       -0.0000000000000000
   48       -0.0000000000000000
   49       -0.0000000000000000
   50       -0.0000036800280702
   51       -0.0000000000000001
   52       -0.0000000000000000
   53        0.0000000000000000
   54       -0.0000000000000000
   55        0.0000322583337222
   56       -0.0000948206386192
   57        0.0002406734751817
Sym= A
 Ene=   -65.040530108959061
Spin= Alpha
Occup=  2.0000
    1       -0.0200121763606917
    2       -0.1268062042557265
    3       -0.1009864636088281
    4       -0.2392772142899343
    5        0.0410408989081326
    6        2.9108543518896548
    7       -2.0927939929065298
    8        0.3271668763224602
    9       -0.8029276881889603
   10        0.7421946436208929
   11       -0.0156387422027819
   12        0.0051592630793566
   13        0.0000000000000000
   14        0.0000000000000000
   15        0.0002210083397575
   16        0.0000000000000000
   17        0.0000000000000000
   18        0.0009011704183183
   19        0.0000000000000000
   20        0.0000000000000000
   21        0.0005965453643227
   22       -0.0000000000000000
   23       -0.0000000000000000
   24        0.0001740361289327
   25       -0.0000000000000000
   26       -0.0000000000000000
   27        0.0003157807327495
   28       -0.0000000000000000
   29       -0.0000000000000000
   30       -0.0033148670917024
   31        0.0000000000000000
   32        0.0000000000000000
   33        0.0033637575238616
   34        0.0000000000000000
   35        0.0000000000000000
   36       -0.0004128363908181
   37        0.0000000000000000
   38        0.0000000000000000
   39        0.0008193576976864
   40        0.0000479672971264
   41       -0.0000000000000005
   42       -0.0000000000000000
   43       -0.0000000000000002
   44        0.0000000000000000
   45        0.0000179431973958
   46       -0.0000000000000015
   47       -0.0000000000000000
   48        0.0000000000000001
   49        0.0000000000000001
   50        0.0000214512588882
   51       -0.0000000000000017
   52       -0.0000000000000000
   53       -0.0000000000000001
   54        0.0000000000000001
   55       -0.0001643944672769
   56        0.0004892039518812
   57       -0.0012904243598685
Sym= A
 Ene=   -58.192968352568791
Spin= Alpha
Occup=  2.0000
    1       -0.0000359151728723
    2       -0.0002272491569764
    3       -0.0001975819228090
    4       -0.0004129270038025
    5        0.0000604572982986
    6        0.0072965336882350
    7       -0.0059332517950454
    8        0.0008553877709573
    9       -0.0056403813799494
   10        0.0055125567417779
   11       -0.0004231096854531
   12        0.0005590136047866
   13        0.0000000000000000
   14        0.0000000000000000
   15       -0.1386920130979603
   16        0.0000000000000000
   17        0.0000000000000000
   18       -0.5745099947470921
   19        0.0000000000000000
   20        0.0000000000000000
   21        0.2418138401604234
   22       -0.0000000000000000
   23       -0.0000000000000000
   24       -0.6838062416413386
   25       -0.0000000000000000
   26       -0.0000000000000000
   27       -0.0069407075275577
   28       -0.0000000000000000
   29       -0.0000000000000000
   30       -0.2040219986651700
   31        0.0000000000000000
   32        0.0000000000000000
   33        0.1899678256816723
   34        0.0000000000000000
   35        0.0000000000000000
   36       -0.0048136768840295
   37        0.0000000000000000
   38        0.0000000000000000
   39        0.0019177615410191
   40       -0.0001101142681620
   41        0.0000000000000010
   42        0.0000000000000000
   43       -0.0000000000000000
   44       -0.0000000000000000
   45       -0.0000924169667346
   46        0.0000000000000032
   47        0.0000000000000001
   48       -0.0000000000000000
   49       -0.0000000000000001
   50        0.0000133642739749
   51        0.0000000000000037
   52        0.0000000000000001
   53       -0.0000000000000001
   54       -0.0000000000000001
   55       -0.0000998338529518
   56        0.0004525632974605
   57       -0.0008205271454737
Sym= A
 Ene=   -58.190731647910113
Spin= Alpha
Occup=  2.0000
    1       -0.0000000000000000
    2        0.0000000000000000
    3       -0.0000000000000000
    4        0.0000000000000000
    5       -0.0000000000000000
    6        0.0000000000000000
    7       -0.0000000000000000
    8        0.0000000000000000
    9       -0.0000000000000001
   10        0.0000000000000001
   11       -0.0000000000000000
   12        0.0000000000000000
   13       -0.0082813395638578
   14       -0.1384633798766015
   15       -0.0000000000000000
   16       -0.0343031678176064
   17       -0.5735464013405436
   18       -0.0000000000000000
   19        0.0144039781038934
   20        0.2408333540135869
   21        0.0000000000000000
   22       -0.0407851697011362
   23       -0.6819249314447865
   24       -0.0000000000000000
   25       -0.0004211765602563
   26       -0.0070420570034066
   27        0.0000000000000000
   28       -0.0120442902182892
   29       -0.2013794482057087
   30       -0.0000000000000000
   31        0.0112039761214236
   32        0.1873294786257918
   33        0.0000000000000000
   34       -0.0002721703699890
   35       -0.0045507000972769
   36       -0.0000000000000000
   37        0.0000875089561645
   38        0.0014631535672812
   39        0.0000000000000000
   40       -0.0000000000000001
   41       -0.0000063659096205
   42       -0.0001064433198636
   43        0.0000000003321271
   44       -0.0000000001290832
   45       -0.0000000000000002
   46       -0.0000043964566931
   47       -0.0000735109226724
   48        0.0000000008045706
   49       -0.0000000000711473
   50       -0.0000000000000003
   51        0.0000001576152303
   52        0.0000026367828314
   53        0.0000000003974199
   54       -0.0000000003885833
   55        0.0000000000000000
   56       -0.0000000000000000
   57       -0.0000000000000000
Sym= A
 Ene=   -58.190731647798387
Spin= Alpha
Occup=  2.0000
    1        0.0000000000000000
    2       -0.0000000000000000
    3        0.0000000000000000
    4       -0.0000000000000000
    5        0.0000000000000000
    6       -0.0000000000000004
    7        0.0000000000000004
    8       -0.0000000000000001
    9        0.0000000000000009
   10       -0.0000000000000009
   11        0.0000000000000001
   12       -0.0000000000000002
   13        0.1384633798759874
   14       -0.0082813396886003
   15        0.0000000000000000
   16        0.5735464013375653
   17       -0.0343031676129896
   18        0.0000000000000000
   19       -0.2408333539798808
   20        0.0144039769823415
   21       -0.0000000000000000
   22        0.6819249314148575
   23       -0.0407851683744303
   24        0.0000000000000000
   25        0.0070420570020597
   26       -0.0004211772122245
   27       -0.0000000000000000
   28        0.2013794481816783
   29       -0.0120443039164225
   30        0.0000000000000001
   31       -0.1873294786001574
   32        0.0112039914587756
   33       -0.0000000000000001
   34        0.0045507000981969
   35       -0.0002721723001852
   36        0.0000000000000000
   37       -0.0014631535685973
   38        0.0000875099350752
   39       -0.0000000000000002
   40        0.0000000000000009
   41        0.0001064433192664
   42       -0.0000063659241944
   43       -0.0000000008376193
   44        0.0000000002382851
   45        0.0000000000000029
   46        0.0000735109227485
   47       -0.0000043964614398
   48        0.0000000000258637
   49        0.0000000002752349
   50        0.0000000000000033
   51       -0.0000026367831230
   52        0.0000001576193098
   53       -0.0000000000722058
   54       -0.0000000002316269
   55       -0.0000000000000001
   56        0.0000000000000002
   57        0.0000000000000001
Sym= A
 Ene=   -9.7756974486985957
Spin= Alpha
Occup=  2.0000
    1        0.0079440041325751
    2        0.0517759306063910
    3        0.0334625103523818
    4        0.1166837900657419
    5       -0.0490155745661351
    6       -1.0538557588886361
    7        0.3368107531753398
    8        0.1608848558215418
    9        2.2954370319402586
   10       -1.3027341152566370
   11        0.0912752978330276
   12       -0.0248968030309657
   13       -0.0000000000000000
   14       -0.0000000000000000
   15       -0.0005796246499608
   16       -0.0000000000000000
   17       -0.0000000000000000
   18       -0.0026078091395237
   19       -0.0000000000000000
   20       -0.0000000000000000
   21       -0.0003523724316493
   22        0.0000000000000000
   23        0.0000000000000000
   24       -0.0013039239641526
   25        0.0000000000000000
   26        0.0000000000000000
   27        0.0043796935049893
   28        0.0000000000000000
   29        0.0000000000000000
   30        0.0193510761699720
   31       -0.0000000000000000
   32       -0.0000000000000000
   33       -0.0122880685409325
   34       -0.0000000000000000
   35       -0.0000000000000000
   36        0.0024397827138259
   37       -0.0000000000000000
   38       -0.0000000000000000
   39       -0.0039970115855186
   40        0.0001202945104523
   41       -0.0000000000000125
   42       -0.0000000000000003
   43        0.0000000000000002
   44        0.0000000000000004
   45        0.0005015097062069
   46       -0.0000000000000396
   47       -0.0000000000000010
   48        0.0000000000000000
   49        0.0000000000000013
   50        0.0013822238603804
   51       -0.0000000000000458
   52       -0.0000000000000012
   53        0.0000000000000004
   54        0.0000000000000015
   55        0.0005389438558621
   56       -0.0018342954470066
   57        0.0060506011217677
Sym= A
 Ene=   -7.3578959005847713
Spin= Alpha
Occup=  2.0000
    1        0.0000950835807203
    2        0.0006222606013893
    3        0.0003744638416424
    4        0.0014449586539248
    5       -0.0006806118882971
    6       -0.0098666148613572
    7        0.0007190553960751
    8        0.0034257108322093
    9        0.0286784029971959
   10       -0.0170462170272229
   11       -0.0024466463598559
   12        0.0041402632660903
   13       -0.0000000000000000
   14       -0.0000000000000000
   15        0.0577276599712946
   16       -0.0000000000000000
   17       -0.0000000000000000
   18        0.2637240565578971
   19       -0.0000000000000000
   20       -0.0000000000000000
   21       -0.1089292773328206
   22        0.0000000000000000
   23        0.0000000000000000
   24        0.2744897418879764
   25        0.0000000000000000
   26        0.0000000000000000
   27       -0.5233643690056939
   28        0.0000000000000000
   29        0.0000000000000001
   30       -0.9819448684939011
   31       -0.0000000000000000
   32       -0.0000000000000001
   33        0.3770788914653392
   34       -0.0000000000000000
   35       -0.0000000000000000
   36       -0.0558842606984824
   37       -0.0000000000000000
   38       -0.0000000000000000
   39        0.0162310188612280
   40       -0.0006886120667876
   41        0.0000000000000482
   42        0.0000000000000012
   43       -0.0000000000000002
   44       -0.0000000000000018
   45       -0.0027316028669862
   46        0.0000000000001523
   47        0.0000000000000037
   48       -0.0000000000000007
   49       -0.0000000000000057
   50       -0.0038962997761492
   51        0.0000000000001759
   52        0.0000000000000043
   53       -0.0000000000000008
   54       -0.0000000000000066
   55       -0.0004635678107304
   56        0.0026492175299571
   57       -0.0063400132415414
Sym= A
 Ene=   -7.3470165447417406
Spin= Alpha
Occup=  2.0000
    1        0.0000000000000000
    2       -0.0000000000000000
    3        0.0000000000000000
    4       -0.0000000000000000
    5        0.0000000000000000
    6       -0.0000000000000006
    7        0.0000000000000006
    8       -0.0000000000000001
    9        0.0000000000000013
   10       -0.0000000000000013
   11        0.0000000000000002
   12       -0.0000000000000002
   13       -0.0005947636805147
   14       -0.0578267090274623
   15        0.0000000000000000
   16       -0.0027174849866287
   17       -0.2642112464596251
   18        0.0000000000000000
   19        0.0011301672291814
   20        0.1098849540644490
   21       -0.0000000000000000
   22       -0.0028355921102817
   23       -0.2756973042504947
   24        0.0000000000000000
   25        0.0054013792710633
   26        0.5251568002788765
   27       -0.0000000000000000
   28        0.0101186955275233
   29        0.9838043340698065
   30        0.0000000000000001
   31       -0.0039040757973498
   32       -0.3795796140543320
   33       -0.0000000000000001
   34        0.0005493414638435
   35        0.0534105506921614
   36        0.0000000000000001
   37       -0.0001291722525766
   38       -0.0125589643989923
   39       -0.0000000000000002
   40        0.0000000000000013
   41        0.0000053566236602
   42        0.0005207950585450
   43       -0.0000000006318524
   44       -0.0000000012274437
   45        0.0000000000000042
   46        0.0000216353441433
   47        0.0021036291081496
   48        0.0000000026955089
   49       -0.0000000070250351
   50        0.0000000000000049
   51        0.0000344442838071
   52        0.0033487124862119
   53        0.0000000043260945
   54       -0.0000000003101275
   55       -0.0000000000000001
   56        0.0000000000000002
   57        0.0000000000000002
Sym= A
 Ene=   -7.3470165444949478
Spin= Alpha
Occup=  2.0000
    1       -0.0000000000000000
    2        0.0000000000000001
    3       -0.0000000000000005
    4        0.0000000000000007
    5       -0.0000000000000007
    6        0.0000000000000183
    7       -0.0000000000000194
    8        0.0000000000000033
    9       -0.0000000000000385
   10        0.0000000000000390
   11       -0.0000000000000056
   12        0.0000000000000073
   13        0.0578267090239774
   14       -0.0005947639281735
   15       -0.0000000000000000
   16        0.2642112464416695
   17       -0.0027174867623708
   18       -0.0000000000000001
   19       -0.1098849540355788
   20        0.0011301966083785
   21        0.0000000000000011
   22        0.2756973042181091
   23       -0.0028356229489588
   24       -0.0000000000000012
   25       -0.5251568001893716
   26        0.0054013869094823
   27        0.0000000000000003
   28       -0.9838043343973668
   29        0.0101186786407132
   30       -0.0000000000000033
   31        0.3795796143544436
   32       -0.0039040640077288
   33        0.0000000000000035
   34       -0.0534105508103290
   35        0.0005493410321471
   36       -0.0000000000000019
   37        0.0125589644550699
   38       -0.0001291710354349
   39        0.0000000000000067
   40       -0.0000000000000404
   41       -0.0005207950544955
   42        0.0000053569727132
   43       -0.0000000016172889
   44        0.0000000021894748
   45       -0.0000000000001280
   46       -0.0021036290983870
   47        0.0000216360723328
   48       -0.0000000072786866
   49        0.0000000064343734
   50       -0.0000000000001473
   51       -0.0033487124593560
   52        0.0000344479536008
   53       -0.0000000005231629
   54        0.0000000074682909
   55        0.0000000000000023
   56       -0.0000000000000071
   57       -0.0000000000000060
Sym= A
 Ene=   -3.0612746681595047
Spin= Alpha
Occup=  2.0000
    1       -0.0000258812790815
    2       -0.0001736706107782
    3       -0.0000422200186209
    4       -0.0004866984488544
    5        0.0003578932675299
    6       -0.0054239144973651
    7        0.0088467518879117
    8       -0.0035158049677093
    9        0.0343333823772659
   10       -0.0410448181654752
   11        0.0200773809536917
   12       -0.0284834982834639
   13       -0.0000000000000000
   14       -0.0000000000000000
   15        0.0003947252642165
   16       -0.0000000000000000
   17       -0.0000000000000000
   18        0.0018336949172206
   19       -0.0000000000000000
   20       -0.0000000000000000
   21       -0.0015639937630433
   22        0.0000000000000000
   23        0.0000000000000000
   24        0.0027749246504723
   25        0.0000000000000000
   26        0.0000000000000000
   27       -0.0042509864048984
   28        0.0000000000000003
   29        0.0000000000000001
   30       -0.0060429486042813
   31       -0.0000000000000003
   32       -0.0000000000000001
   33        0.0019023261289065
   34       -0.0000000000000001
   35       -0.0000000000000000
   36        0.0072843873499512
   37       -0.0000000000000002
   38       -0.0000000000000001
   39       -0.0257247879522115
   40        0.1500229736769256
   41       -0.0000000000082688
   42       -0.0000000000001873
   43        0.0000000000000329
   44        0.0000000000002965
   45        0.5116054488898796
   46       -0.0000000000261168
   47       -0.0000000000005915
   48        0.0000000000001038
   49        0.0000000000009364
   50        0.5747173323095057
   51       -0.0000000000301680
   52       -0.0000000000006832
   53        0.0000000000001199
   54        0.0000000000010817
   55       -0.0029222062992772
   56        0.0196277268220989
   57        0.0244812821384120
Sym= A
 Ene=   -3.0563519637692647
Spin= Alpha
Occup=  2.0000
    1       -0.0000000000000009
    2        0.0000000000000117
    3       -0.0000000000001029
    4        0.0000000000001380
    5       -0.0000000000001383
    6        0.0000000000037332
    7       -0.0000000000039694
    8        0.0000000000006759
    9       -0.0000000000078645
   10        0.0000000000079523
   11       -0.0000000000011528
   12        0.0000000000014864
   13       -0.0003398159613089
   14        0.0000052558127192
   15       -0.0000000000000011
   16       -0.0015456139579075
   17        0.0000239051881594
   18       -0.0000000000000132
   19       -0.0005680684998505
   20        0.0000088018763211
   21        0.0000000000002228
   22       -0.0002642010560560
   23        0.0000040684756226
   24       -0.0000000000002425
   25        0.0031122292079743
   26       -0.0000481304702933
   27        0.0000000000000633
   28        0.0227712812347469
   29       -0.0003522671809690
   30       -0.0000000000006740
   31       -0.0204528321558716
   32        0.0003164116048218
   33        0.0000000000007178
   34       -0.0001060809498971
   35        0.0000016132784079
   36       -0.0000000000003838
   37        0.0000751357430079
   38       -0.0000011386561455
   39        0.0000000000013771
   40       -0.0000000000082488
   41       -0.1502256722581082
   42        0.0023236066217140
   43       -0.0000003116587489
   44       -0.0000001299701026
   45       -0.0000000000261290
   46       -0.5123811796000447
   47        0.0079252293397784
   48       -0.0000010607170107
   49       -0.0000004417885541
   50       -0.0000000000300651
   51       -0.5748078390245660
   52        0.0088908037195789
   53       -0.0000011891153314
   54       -0.0000004902760862
   55        0.0000000000004688
   56       -0.0000000000014558
   57       -0.0000000000012183
Sym= A
 Ene=   -3.0563519641162373
Spin= Alpha
Occup=  2.0000
    1        0.0000000000000000
    2       -0.0000000000000004
    3        0.0000000000000039
    4       -0.0000000000000052
    5        0.0000000000000052
    6       -0.0000000000001421
    7        0.0000000000001508
    8       -0.0000000000000256
    9        0.0000000000003000
   10       -0.0000000000003029
   11        0.0000000000000437
   12       -0.0000000000000569
   13        0.0000052555144429
   14        0.0003398158819107
   15        0.0000000000000000
   16        0.0000239042082405