[Molden Format]
[GTO]
    1 0
 s   6 1.00
     229.9441040    1.0000000000
      40.9299350    0.0000000000
      15.0576100    0.0000000000
       3.8190080    0.0000000000
       0.8883460    0.0000000000
       0.3047830    0.0000000000
 s   6 1.00
     229.9441040    0.0000000000
      40.9299350    1.0000000000
      15.0576100    0.0000000000
       3.8190080    0.0000000000
       0.8883460    0.0000000000
       0.3047830    0.0000000000
 s   6 1.00
     229.9441040    0.0000000000
      40.9299350    0.0000000000
      15.0576100    1.0000000000
       3.8190080    0.0000000000
       0.8883460    0.0000000000
       0.3047830    0.0000000000
 s   6 1.00
     229.9441040    0.0000000000
      40.9299350    0.0000000000
      15.0576100    0.0000000000
       3.8190080    1.0000000000
       0.8883460    0.0000000000
       0.3047830    0.0000000000
 s   6 1.00
     229.9441040    0.0000000000
      40.9299350    0.0000000000
      15.0576100    0.0000000000
       3.8190080    0.0000000000
       0.8883460    1.0000000000
       0.3047830    0.0000000000
 s   6 1.00
     229.9441040    0.0000000000
      40.9299350    0.0000000000
      15.0576100    0.0000000000
       3.8190080    0.0000000000
       0.8883460    0.0000000000
       0.3047830    1.0000000000
 p   4 1.00
      15.0576100    1.0000000000
       3.8190080    0.0000000000
       0.8883460    0.0000000000
       0.3047830    0.0000000000
 p   4 1.00
      15.0576100    0.0000000000
       3.8190080    1.0000000000
       0.8883460    0.0000000000
       0.3047830    0.0000000000
 p   4 1.00
      15.0576100    0.0000000000
       3.8190080    0.0000000000
       0.8883460    1.0000000000
       0.3047830    0.0000000000
 p   4 1.00
      15.0576100    0.0000000000
       3.8190080    0.0000000000
       0.8883460    0.0000000000
       0.3047830    1.0000000000

    2 0
 s   2 1.00
       1.3097564    1.0000000000
       0.2331360    0.0000000000
 s   2 1.00
       1.3097564    0.0000000000
       0.2331360    1.0000000000

*** Dalton interface to Molden, wave function type :
HF          16Jul22   23:50:29
[Atoms] AU
Cl         1    17         0.0000000000         0.0000000000         0.067474065
H          2     1         0.0000000000         0.0000000000        -2.341171006
[5D7F]
[9G]
[MO]
Sym= A
 Ene=   -101.20128715194680
Spin= Alpha
Occup=  2.0000
    1       -0.4013872559952811
    2       -0.6905917167292396
    3        0.0030835322139448
    4       -0.0496218678921641
    5        0.0238921823144830
    6       -0.0108404897926794
    7        0.0000000000000000
    8        0.0000000000000000
    9        0.0000635966261589
   10        0.0000000000000000
   11        0.0000000000000000
   12        0.0001864798049492
   13        0.0000000000000000
   14       -0.0000000000000000
   15       -0.0007157508735511
   16       -0.0000000000000000
   17       -0.0000000000000000
   18        0.0015346809810476
   19        0.0001233690201497
   20        0.0019303232400784
Sym= A
 Ene=   -10.456089244193379
Spin= Alpha
Occup=  2.0000
    1       -0.1296286025793635
    2       -0.3697333925712739
    3        0.1399661132236508
    4        0.8872505239060050
    5        0.1738610891930627
    6       -0.0375557717919802
    7        0.0000000000000000
    8        0.0000000000000000
    9       -0.0047486351390563
   10        0.0000000000000000
   11        0.0000000000000000
   12       -0.0073477150447214
   13        0.0000000000000000
   14       -0.0000000000000000
   15       -0.0038886810922545
   16        0.0000000000000000
   17       -0.0000000000000000
   18        0.0048412262123804
   19        0.0002623937646035
   20        0.0060552106520120
Sym= A
 Ene=   -7.6251076642969906
Spin= Alpha
Occup=  2.0000
    1       -0.0017060142083238
    2       -0.0049822077390892
    3        0.0021890639296496
    4        0.0128650060564022
    5       -0.0028042116608846
    6        0.0039616060664828
    7        0.0000000000000000
    8        0.0000000000000000
    9        0.4779677455094387
   10        0.0000000000000000
   11        0.0000000000000000
   12        0.5997587832089805
   13        0.0000000000000000
   14        0.0000000000000000
   15        0.0989519549691519
   16       -0.0000000000000000
   17        0.0000000000000000
   18       -0.0204789034518271
   19       -0.0000098134175198
   20       -0.0052264260529056
Sym= A
 Ene=   -7.6181368097528619
Spin= Alpha
Occup=  2.0000
    1       -0.0000000000000000
    2       -0.0000000000000000
    3        0.0000000000000000
    4        0.0000000000000000
    5       -0.0000000000000000
    6       -0.0000000000000000
    7       -0.2197286477310764
    8        0.4263147579686780
    9        0.0000000000000000
   10       -0.2748379954231125
   11        0.5332372206061462
   12        0.0000000000000000
   13       -0.0434583594585477
   14        0.0843173542122807
   15       -0.0000000000000000
   16        0.0075148544201365
   17       -0.0145802465745230
   18       -0.0000000000000000
   19        0.0000000000000000
   20       -0.0000000000000000
Sym= A
 Ene=   -7.6181368097314541
Spin= Alpha
Occup=  2.0000
    1        0.0000000000000000
    2        0.0000000000000000
    3       -0.0000000000000000
    4       -0.0000000000000000
    5        0.0000000000000000
    6        0.0000000000000000
    7       -0.4263147579477596
    8       -0.2197286476770862
    9       -0.0000000000000000
   10       -0.5332372206071042
   11       -0.2748379954739532
   12       -0.0000000000000000
   13       -0.0843173542190728
   14       -0.0434583594939426
   15        0.0000000000000000
   16        0.0145802465036048
   17        0.0075148545182596
   18        0.0000000000000000
   19        0.0000000000000000
   20       -0.0000000000000000
Sym= A
 Ene=   -1.0674706578136983
Spin= Alpha
Occup=  2.0000
    1       -0.0374576846935216
    2       -0.1095857696232230
    3        0.0378113900179890
    4        0.4711037415036030
    5       -0.0439668263145244
    6       -0.9333274996687391
    7       -0.0000000000000000
    8       -0.0000000000000000
    9       -0.0196151898166861
   10       -0.0000000000000000
   11       -0.0000000000000000
   12       -0.0285697876274359
   13       -0.0000000000000000
   14       -0.0000000000000000
   15        0.0474180116208248
   16        0.0000000000000000
   17        0.0000000000000000
   18        0.0586516674838566
   19       -0.0964612604096685
   20       -0.1334359917883454
Sym= A
 Ene=  -0.54220386956296318
Spin= Alpha
Occup=  2.0000
    1        0.0134193615822840
    2        0.0401114942414044
    3       -0.0158569813753396
    4       -0.1672597182515929
    5       -0.0143409386980005
    6        0.5028054950278902
    7        0.0000000000000000
    8        0.0000000000000000
    9       -0.1066657242891560
   10        0.0000000000000000
   11        0.0000000000000000
   12       -0.1367501210277021
   13        0.0000000000000000
   14        0.0000000000000000
   15        0.2179171711089612
   16       -0.0000000000000000
   17       -0.0000000000000000
   18        0.4693156472224753
   19       -0.1845736525251647
   20       -0.4095350347084471
Sym= A
 Ene=  -0.39127461928542506
Spin= Alpha
Occup=  2.0000
    1        0.0000000000000000
    2       -0.0000000000000000
    3        0.0000000000000000
    4       -0.0000000000000000
    5        0.0000000000000000
    6       -0.0000000000000000
    7       -0.1033654091406589
    8       -0.0992250919316046
    9        0.0000000000000000
   10       -0.1258372740126981
   11       -0.1207968428038498
   12        0.0000000000000000
   13        0.1921808974833152
   14        0.1844830787443615
   15       -0.0000000000000000
   16        0.5892679487512064
   17        0.5656647764199427
   18       -0.0000000000000000
   19       -0.0000000000000000
   20       -0.0000000000000000
Sym= A
 Ene=  -0.39127461926746959
Spin= Alpha
Occup=  2.0000
    1       -0.0000000000000000
    2        0.0000000000000000
    3       -0.0000000000000000
    4        0.0000000000000000
    5       -0.0000000000000000
    6       -0.0000000000000000
    7       -0.0992250919381129
    8        0.1033654090199536
    9       -0.0000000000000000
   10       -0.1207968428207066
   11        0.1258372740261687
   12       -0.0000000000000000
   13        0.1844830785775459
   14       -0.1921808973768688
   15        0.0000000000000000
   16        0.5656647765460523
   17       -0.5892679488541435
   18        0.0000000000000000
   19        0.0000000000000000
   20        0.0000000000000000
Sym= A
 Ene=   0.28088787870337584
Spin= Alpha
Occup=  0.0000
    1       -0.0109970314134319
    2       -0.0332311304815782
    3        0.0139568386009792
    4        0.1356579401505543
    5        0.0688805956029979
    6       -0.7212917715681052
    7        0.0000000000000000
    8       -0.0000000000000000
    9       -0.0968283980455992
   10        0.0000000000000000
   11        0.0000000000000000
   12       -0.1100520709550410
   13        0.0000000000000000
   14        0.0000000000000000
   15        0.1228648385145996
   16       -0.0000000000000000
   17        0.0000000000000000
   18        0.9706182700578521
   19        0.1088904799551642
   20        1.2103053758396491
Sym= A
 Ene=    1.4847519761700925
Spin= Alpha
Occup=  0.0000
    1        0.0019552489364089
    2        0.0063651602423589
    3       -0.0037136568616320
    4       -0.0235867405661534
    5        0.0501366511892957
    6       -0.2686894423910382
    7       -0.0000000000000000
    8       -0.0000000000000000
    9        0.0217655113004526
   10       -0.0000000000000000
   11       -0.0000000000000000
   12        0.0084092373493236
   13       -0.0000000000000000
   14       -0.0000000000000000
   15        0.0361724650063941
   16        0.0000000000000000
   17       -0.0000000000000000
   18       -0.0345521576544766
   19       -1.2539005925261681
   20        1.0354177081040876
Sym= A
 Ene=    1.7491196787745298
Spin= Alpha
Occup=  0.0000
    1        0.0000000000000000
    2        0.0000000000000000
    3       -0.0000000000000000
    4       -0.0000000000000000
    5        0.0000000000000000
    6        0.0000000000000000
    7       -0.2134404623847743
    8       -0.0000129562647853
    9       -0.0000000000000000
   10       -0.3743022312172400
   11       -0.0000227155202336
   12       -0.0000000000000000
   13        1.5897599471728789
   14        0.0000964873441290
   15        0.0000000000000000
   16       -1.2240871945727727
   17       -0.0000742940991441
   18        0.0000000000000000
   19        0.0000000000000000
   20       -0.0000000000000000
Sym= A
 Ene=    1.7491196787839838
Spin= Alpha
Occup=  0.0000
    1        0.0000000000000000
    2        0.0000000000000000
    3       -0.0000000000000000
    4       -0.0000000000000000
    5       -0.0000000000000000
    6        0.0000000000000000
    7        0.0000129536364259
    8       -0.2134404623778292
    9       -0.0000000000000000
   10        0.0000227187035493
   11       -0.3743022312598447
   12       -0.0000000000000000
   13       -0.0000964892608860
   14        1.5897599471855255
   15        0.0000000000000000
   16        0.0000742947699757
   17       -1.2240871945770633
   18        0.0000000000000000
   19        0.0000000000000000
   20        0.0000000000000000
Sym= A
 Ene=    1.8185930213637309
Spin= Alpha
Occup=  0.0000
    1        0.0188661355157728
    2        0.0495654715502727
    3       -0.0003142202598207
    4       -0.3517034385342186
    5        0.6332979101069295
    6       -0.2483952820430425
    7        0.0000000000000000
    8       -0.0000000000000000
    9       -0.2044398518269061
   10        0.0000000000000000
   11       -0.0000000000000000
   12       -0.3650303435975931
   13        0.0000000000000000
   14        0.0000000000000000
   15        1.5792691371520073
   16        0.0000000000000000
   17        0.0000000000000000
   18       -1.3737121176939067
   19       -0.0293487076978355
   20       -0.3182849811228662
Sym= A
 Ene=    2.1304779973582399
Spin= Alpha
Occup=  0.0000
    1       -0.0614381587514466
    2       -0.1581356954944381
    3       -0.0101577294745390
    4        1.2125652110562970
    5       -2.5629825647477649
    6        1.9169794215146498
    7        0.0000000000000000
    8       -0.0000000000000000
    9       -0.0639883842770756
   10        0.0000000000000000
   11       -0.0000000000000000
   12       -0.1148622836129580
   13        0.0000000000000000
   14        0.0000000000000000
   15        0.5562792012438890
   16        0.0000000000000000
   17        0.0000000000000000
   18       -0.6938711353771495
   19       -0.0603111639710112
   20       -0.4983271552894867
Sym= A
 Ene=    14.758195029683751
Spin= Alpha
Occup=  0.0000
    1        0.0000000000000000
    2        0.0000000000000000
    3       -0.0000000000000000
    4       -0.0000000000000000
    5        0.0000000000000000
    6        0.0000000000000000
    7       -1.1566044622691818
    8       -0.0006583078466215
    9       -0.0000000000000000
   10        1.4027271516731588
   11        0.0007983947182700
   12       -0.0000000000000000
   13       -0.8248808182940394
   14       -0.0004695009989800
   15        0.0000000000000000
   16        0.3474942965467537
   17        0.0001977851617890
   18        0.0000000000000000
   19        0.0000000000000000
   20       -0.0000000000000000
Sym= A
 Ene=    14.758195029702472
Spin= Alpha
Occup=  0.0000
    1       -0.0000000000000000
    2       -0.0000000000000000
    3       -0.0000000000000000
    4        0.0000000000000000
    5       -0.0000000000000000
    6       -0.0000000000000000
    7       -0.0006583083175510
    8        1.1566044622845941
    9        0.0000000000000000
   10        0.0007983938856910
   11       -1.4027271516520132
   12       -0.0000000000000000
   13       -0.0004694973715590
   14        0.8248808182541452
   15        0.0000000000000000
   16        0.0001977824198708
   17       -0.3474942965558510
   18       -0.0000000000000000
   19        0.0000000000000000
   20        0.0000000000000000
Sym= A
 Ene=    14.816016708444268
Spin= Alpha
Occup=  0.0000
    1       -0.0009911476047457
    2       -0.0044386912724688
    3        0.0052837265864220
    4        0.0145767587807496
    5       -0.0643419767935415
    6        0.0997235375949047
    7       -0.0000000000000000
    8       -0.0000000000000000
    9        1.1581314077667515
   10       -0.0000000000000000
   11       -0.0000000000000000
   12       -1.4118109785076494
   13       -0.0000000000000000
   14       -0.0000000000000000
   15        0.8652844748509118
   16        0.0000000000000000
   17        0.0000000000000000
   18       -0.4360501735641906
   19        0.0024161033848101
   20       -0.1161891595692119
Sym= A
 Ene=    27.325931260916438
Spin= Alpha
Occup=  0.0000
    1        0.1886765042488743
    2        1.3046673382381559
    3       -2.7597033536445701
    4        2.0620240841030202
    5       -1.1581746121707770
    6        0.5220059747640361
    7        0.0000000000000000
    8       -0.0000000000000000
    9        0.0062799340516398
   10        0.0000000000000000
   11       -0.0000000000000000
   12       -0.0143107618715737
   13        0.0000000000000000
   14        0.0000000000000000
   15        0.0375389206430237
   16        0.0000000000000000
   17        0.0000000000000000
   18       -0.0742533635976934
   19       -0.0041439472354144
   20       -0.0915655694737325
Sym= A
 Ene=    223.66942984925669
Spin= Alpha
Occup=  0.0000
    1        1.3241209655696593
    2       -2.3369261682121603
    3        1.8447266766391224
    4       -0.7294203647726533
    5        0.3473287297859695
    6       -0.1551318356322440
    7        0.0000000000000000
    8        0.0000000000000000
    9       -0.0011176522400924
   10        0.0000000000000000
   11        0.0000000000000000
   12        0.0033943473477049
   13        0.0000000000000000
   14       -0.0000000000000000
   15       -0.0105851554641897
   16       -0.0000000000000000
   17       -0.0000000000000000
   18        0.0218746270704165
   19        0.0014994602323036
   20        0.0273153239702859
