[Molden Format]
[GTO]
    1 0
 s  12 1.00
  183564.1410000    1.0000000000
   24897.6149000    0.0000000000
    5331.3683900    0.0000000000
    1447.4721400    0.0000000000
     457.4692220    0.0000000000
     160.9092540    0.0000000000
      61.3372865    0.0000000000
      24.5295705    0.0000000000
       6.7882804    0.0000000000
       2.6192814    0.0000000000
       0.5404890    0.0000000000
       0.1952371    0.0000000000
 s  12 1.00
  183564.1410000    0.0000000000
   24897.6149000    1.0000000000
    5331.3683900    0.0000000000
    1447.4721400    0.0000000000
     457.4692220    0.0000000000
     160.9092540    0.0000000000
      61.3372865    0.0000000000
      24.5295705    0.0000000000
       6.7882804    0.0000000000
       2.6192814    0.0000000000
       0.5404890    0.0000000000
       0.1952371    0.0000000000
 s  12 1.00
  183564.1410000    0.0000000000
   24897.6149000    0.0000000000
    5331.3683900    1.0000000000
    1447.4721400    0.0000000000
     457.4692220    0.0000000000
     160.9092540    0.0000000000
      61.3372865    0.0000000000
      24.5295705    0.0000000000
       6.7882804    0.0000000000
       2.6192814    0.0000000000
       0.5404890    0.0000000000
       0.1952371    0.0000000000
 s  12 1.00
  183564.1410000    0.0000000000
   24897.6149000    0.0000000000
    5331.3683900    0.0000000000
    1447.4721400    1.0000000000
     457.4692220    0.0000000000
     160.9092540    0.0000000000
      61.3372865    0.0000000000
      24.5295705    0.0000000000
       6.7882804    0.0000000000
       2.6192814    0.0000000000
       0.5404890    0.0000000000
       0.1952371    0.0000000000
 s  12 1.00
  183564.1410000    0.0000000000
   24897.6149000    0.0000000000
    5331.3683900    0.0000000000
    1447.4721400    0.0000000000
     457.4692220    1.0000000000
     160.9092540    0.0000000000
      61.3372865    0.0000000000
      24.5295705    0.0000000000
       6.7882804    0.0000000000
       2.6192814    0.0000000000
       0.5404890    0.0000000000
       0.1952371    0.0000000000
 s  12 1.00
  183564.1410000    0.0000000000
   24897.6149000    0.0000000000
    5331.3683900    0.0000000000
    1447.4721400    0.0000000000
     457.4692220    0.0000000000
     160.9092540    1.0000000000
      61.3372865    0.0000000000
      24.5295705    0.0000000000
       6.7882804    0.0000000000
       2.6192814    0.0000000000
       0.5404890    0.0000000000
       0.1952371    0.0000000000
 s  12 1.00
  183564.1410000    0.0000000000
   24897.6149000    0.0000000000
    5331.3683900    0.0000000000
    1447.4721400    0.0000000000
     457.4692220    0.0000000000
     160.9092540    0.0000000000
      61.3372865    1.0000000000
      24.5295705    0.0000000000
       6.7882804    0.0000000000
       2.6192814    0.0000000000
       0.5404890    0.0000000000
       0.1952371    0.0000000000
 s  12 1.00
  183564.1410000    0.0000000000
   24897.6149000    0.0000000000
    5331.3683900    0.0000000000
    1447.4721400    0.0000000000
     457.4692220    0.0000000000
     160.9092540    0.0000000000
      61.3372865    0.0000000000
      24.5295705    1.0000000000
       6.7882804    0.0000000000
       2.6192814    0.0000000000
       0.5404890    0.0000000000
       0.1952371    0.0000000000
 s  12 1.00
  183564.1410000    0.0000000000
   24897.6149000    0.0000000000
    5331.3683900    0.0000000000
    1447.4721400    0.0000000000
     457.4692220    0.0000000000
     160.9092540    0.0000000000
      61.3372865    0.0000000000
      24.5295705    0.0000000000
       6.7882804    1.0000000000
       2.6192814    0.0000000000
       0.5404890    0.0000000000
       0.1952371    0.0000000000
 s  12 1.00
  183564.1410000    0.0000000000
   24897.6149000    0.0000000000
    5331.3683900    0.0000000000
    1447.4721400    0.0000000000
     457.4692220    0.0000000000
     160.9092540    0.0000000000
      61.3372865    0.0000000000
      24.5295705    0.0000000000
       6.7882804    0.0000000000
       2.6192814    1.0000000000
       0.5404890    0.0000000000
       0.1952371    0.0000000000
 s  12 1.00
  183564.1410000    0.0000000000
   24897.6149000    0.0000000000
    5331.3683900    0.0000000000
    1447.4721400    0.0000000000
     457.4692220    0.0000000000
     160.9092540    0.0000000000
      61.3372865    0.0000000000
      24.5295705    0.0000000000
       6.7882804    0.0000000000
       2.6192814    0.0000000000
       0.5404890    1.0000000000
       0.1952371    0.0000000000
 s  12 1.00
  183564.1410000    0.0000000000
   24897.6149000    0.0000000000
    5331.3683900    0.0000000000
    1447.4721400    0.0000000000
     457.4692220    0.0000000000
     160.9092540    0.0000000000
      61.3372865    0.0000000000
      24.5295705    0.0000000000
       6.7882804    0.0000000000
       2.6192814    0.0000000000
       0.5404890    0.0000000000
       0.1952371    1.0000000000
 p   8 1.00
     456.4191650    1.0000000000
     105.0525040    0.0000000000
      32.7850628    0.0000000000
      11.7457206    0.0000000000
       4.4506222    0.0000000000
       1.7183644    0.0000000000
       0.5491942    0.0000000000
       0.1655015    0.0000000000
 p   8 1.00
     456.4191650    0.0000000000
     105.0525040    1.0000000000
      32.7850628    0.0000000000
      11.7457206    0.0000000000
       4.4506222    0.0000000000
       1.7183644    0.0000000000
       0.5491942    0.0000000000
       0.1655015    0.0000000000
 p   8 1.00
     456.4191650    0.0000000000
     105.0525040    0.0000000000
      32.7850628    1.0000000000
      11.7457206    0.0000000000
       4.4506222    0.0000000000
       1.7183644    0.0000000000
       0.5491942    0.0000000000
       0.1655015    0.0000000000
 p   8 1.00
     456.4191650    0.0000000000
     105.0525040    0.0000000000
      32.7850628    0.0000000000
      11.7457206    1.0000000000
       4.4506222    0.0000000000
       1.7183644    0.0000000000
       0.5491942    0.0000000000
       0.1655015    0.0000000000
 p   8 1.00
     456.4191650    0.0000000000
     105.0525040    0.0000000000
      32.7850628    0.0000000000
      11.7457206    0.0000000000
       4.4506222    1.0000000000
       1.7183644    0.0000000000
       0.5491942    0.0000000000
       0.1655015    0.0000000000
 p   8 1.00
     456.4191650    0.0000000000
     105.0525040    0.0000000000
      32.7850628    0.0000000000
      11.7457206    0.0000000000
       4.4506222    0.0000000000
       1.7183644    1.0000000000
       0.5491942    0.0000000000
       0.1655015    0.0000000000
 p   8 1.00
     456.4191650    0.0000000000
     105.0525040    0.0000000000
      32.7850628    0.0000000000
      11.7457206    0.0000000000
       4.4506222    0.0000000000
       1.7183644    0.0000000000
       0.5491942    1.0000000000
       0.1655015    0.0000000000
 p   8 1.00
     456.4191650    0.0000000000
     105.0525040    0.0000000000
      32.7850628    0.0000000000
      11.7457206    0.0000000000
       4.4506222    0.0000000000
       1.7183644    0.0000000000
       0.5491942    0.0000000000
       0.1655015    1.0000000000
 d   1 1.00
       0.6031554    1.0000000000

    2 0
 s   6 1.00
      82.9687389    1.0000000000
      12.4571508    0.0000000000
       2.8338242    0.0000000000
       0.8001641    0.0000000000
       0.2586294    0.0000000000
       0.0899767    0.0000000000
 s   6 1.00
      82.9687389    0.0000000000
      12.4571508    1.0000000000
       2.8338242    0.0000000000
       0.8001641    0.0000000000
       0.2586294    0.0000000000
       0.0899767    0.0000000000
 s   6 1.00
      82.9687389    0.0000000000
      12.4571508    0.0000000000
       2.8338242    1.0000000000
       0.8001641    0.0000000000
       0.2586294    0.0000000000
       0.0899767    0.0000000000
 s   6 1.00
      82.9687389    0.0000000000
      12.4571508    0.0000000000
       2.8338242    0.0000000000
       0.8001641    1.0000000000
       0.2586294    0.0000000000
       0.0899767    0.0000000000
 s   6 1.00
      82.9687389    0.0000000000
      12.4571508    0.0000000000
       2.8338242    0.0000000000
       0.8001641    0.0000000000
       0.2586294    1.0000000000
       0.0899767    0.0000000000
 s   6 1.00
      82.9687389    0.0000000000
      12.4571508    0.0000000000
       2.8338242    0.0000000000
       0.8001641    0.0000000000
       0.2586294    0.0000000000
       0.0899767    1.0000000000
 p   1 1.00
       0.5024489    1.0000000000

*** Dalton interface to Molden, wave function type :
HF          28Aug22   17:24:39
[Atoms] AU
Cl         1    17         0.0000000000         0.0000000000         0.067474065
H          2     1         0.0000000000         0.0000000000        -2.341171006
[5D7F]
[9G]
[MO]
Sym= A
 Ene=   -104.84259578844714
Spin= Alpha
Occup=  2.0000
    1       -0.0001603362692087
    2       -0.0014136834344796
    3       -0.0078564150792237
    4       -0.0335821180192068
    5       -0.1130876228884633
    6       -0.2839238349586268
    7       -0.4295450904466665
    8       -0.2631065339677547
    9       -0.0228285798257462
   10        0.0044196867269867
   11       -0.0013499626113987
   12        0.0006037629294605
   13        0.0000000000001064
   14       -0.0000000000001270
   15        0.0000015443425869
   16        0.0000000000008450
   17       -0.0000000000011465
   18        0.0000197447273903
   19        0.0000000000035770
   20       -0.0000000000041240
   21        0.0000691649374370
   22        0.0000000000086885
   23       -0.0000000000127608
   24       -0.0000191383349628
   25        0.0000000000103983
   26       -0.0000000000064884
   27        0.0000518644281196
   28        0.0000000000050323
   29       -0.0000000000314440
   30       -0.0000880176982535
   31        0.0000000000056542
   32        0.0000000000419421
   33        0.0001621671681847
   34        0.0000000000050056
   35        0.0000000000112833
   36       -0.0000703764339517
   37       -0.0000559287179960
   38       -0.0000000000001718
   39       -0.0000000000015808
   40       -0.0000000000000016
   41       -0.0000000000000003
   42       -0.0000011835851296
   43        0.0000092853805289
   44       -0.0000423359009605
   45        0.0000539691294118
   46        0.0000831654111883
   47       -0.0001507074081644
   48        0.0000000000002956
   49        0.0000000000012182
   50        0.0001261389364986
Sym= A
 Ene=   -10.567997353450171
Spin= Alpha
Occup=  2.0000
    1       -0.0000451203248160
    2       -0.0003941943181985
    3       -0.0022333944210614
    4       -0.0094979485163429
    5       -0.0343251280692898
    6       -0.0928376611891709
    7       -0.1973223784567164
    8       -0.1489712904732212
    9        0.4931192982168324
   10        0.6257932470983623
   11        0.0469567649044565
   12       -0.0114680674289901
   13       -0.0000000000818390
   14        0.0000000000796936
   15       -0.0000204218572755
   16       -0.0000000006454763
   17        0.0000000006033308
   18       -0.0001382197580588
   19       -0.0000000027844715
   20        0.0000000027104914
   21       -0.0006591709968129
   22       -0.0000000066500511
   23        0.0000000057728856
   24       -0.0013921923312057
   25       -0.0000000081560741
   26        0.0000000092374086
   27       -0.0030560245734400
   28       -0.0000000028116156
   29        0.0000000048081229
   30       -0.0002391205595900
   31        0.0000000003984665
   32       -0.0000000007684764
   33       -0.0023634231205930
   34        0.0000000001647796
   35        0.0000000014506214
   36        0.0010211952848933
   37        0.0009441316964559
   38        0.0000000002496478
   39       -0.0000000003194265
   40       -0.0000000000081239
   41       -0.0000000000004944
   42        0.0000000173072715
   43        0.0000273003038694
   44        0.0001704857056305
   45       -0.0001201015809485
   46       -0.0016253523928205
   47        0.0027418438421343
   48        0.0000000001038811
   49       -0.0000000000061269
   50       -0.0017310456881629
Sym= A
 Ene=   -8.0355640937338038
Spin= Alpha
Occup=  2.0000
    1       -0.0000002564120821
    2       -0.0000022586971038
    3       -0.0000126491909770
    4       -0.0000547149919452
    5       -0.0001941191004748
    6       -0.0005443529727851
    7       -0.0011251699753711
    8       -0.0009237987592039
    9        0.0036524712899853
   10        0.0027666339665946
   11       -0.0004841525404097
   12        0.0004011793323857
   13        0.0000000000564728
   14       -0.0000000000624039
   15        0.0045968124377938
   16        0.0000000004476962
   17       -0.0000000004927775
   18        0.0364367117834170
   19        0.0000000019082242
   20       -0.0000000021122895
   21        0.1552808627839150
   22        0.0000000046326585
   23       -0.0000000050915811
   24        0.3769525720226013
   25        0.0000000056749198
   26       -0.0000000063780604
   27        0.4624542596837777
   28        0.0000000020441271
   29       -0.0000000017970961
   30        0.1687986471614788
   31        0.0000000000262888
   32       -0.0000000001639146
   33        0.0028270440920225
   34        0.0000000000086934
   35        0.0000000003771431
   36        0.0007035230671724
   37       -0.0001465609721996
   38        0.0000000000045590
   39        0.0000000014233736
   40        0.0000000000000838
   41        0.0000000000000184
   42       -0.0000065775282646
   43        0.0000077449516791
   44       -0.0001024652783857
   45       -0.0005349548268277
   46       -0.0002431263030738
   47        0.0000392424115388
   48       -0.0000000000062263
   49       -0.0000000013262608
   50       -0.0007203395515198
Sym= A
 Ene=   -8.0326609043173054
Spin= Alpha
Occup=  2.0000
    1        0.0000000000000111
    2        0.0000000000000957
    3        0.0000000000005535
    4        0.0000000000022927
    5        0.0000000000086237
    6        0.0000000000224061
    7        0.0000000000525666
    8        0.0000000000345871
    9       -0.0000000001335344
   10       -0.0000000004061916
   11        0.0000000005574899
   12        0.0000000004633032
   13       -0.0033920395726493
   14       -0.0031154637626042
   15       -0.0000000000000243
   16       -0.0268903466090965
   17       -0.0246977956607192
   18       -0.0000000000001946
   19       -0.1146149839189487
   20       -0.1052696531122361
   21       -0.0000000000008907
   22       -0.2782438814147477
   23       -0.2555567850964244
   24       -0.0000000000022119
   25       -0.3408635707098008
   26       -0.3130706739172192
   27       -0.0000000000033230
   28       -0.1229070092496635
   29       -0.1128855585758881
   30        0.0000000000064009
   31       -0.0022120860761088
   32       -0.0020317322294988
   33        0.0000000000117854
   34       -0.0005873821785148
   35       -0.0005394846917285
   36        0.0000000000317231
   37        0.0000000000095912
   38        0.0001756242012630
   39        0.0001613047861732
   40        0.0000000004992592
   41       -0.0000000006130303
   42        0.0000000000004756
   43        0.0000000000037137
   44        0.0000000000166253
   45        0.0000000000537543
   46        0.0000000000293193
   47        0.0000000000130918
   48       -0.0000019315513889
   49       -0.0000017737102257
   50        0.0000000000151267
Sym= A
 Ene=   -8.0326609050096724
Spin= Alpha
Occup=  2.0000
    1       -0.0000000000011725
    2       -0.0000000000102530
    3       -0.0000000000580266
    4       -0.0000000002470830
    5       -0.0000000008924180
    6       -0.0000000024205308
    7       -0.0000000051603869
    8       -0.0000000038458099
    9        0.0000000134690358
   10        0.0000000153506626
   11        0.0000000009599907
   12       -0.0000000004214725
   13        0.0031154637458416
   14       -0.0033920395956948
   15       -0.0000000000859776
   16        0.0246977955773743
   17       -0.0268903467239385
   18       -0.0000000006962865
   19        0.1052696525358812
   20       -0.1146149847661986
   21       -0.0000000029732779
   22        0.2555567840219532
   23       -0.2782438825453545
   24       -0.0000000070720319
   25        0.3130706685481192
   26       -0.3408635772618347
   27       -0.0000000082795273
   28        0.1128855731398433
   29       -0.1229069923701466
   30       -0.0000000030329656
   31        0.0020317193780894
   32       -0.0022120997660605
   33        0.0000000003833775
   34        0.0005394891839249
   35       -0.0005873774841813
   36        0.0000000004460073
   37       -0.0000000005212934
   38       -0.0001613045899467
   39        0.0001756243431121
   40        0.0000000009974537
   41        0.0000000017050532
   42       -0.0000000000004440
   43        0.0000000000236000
   44       -0.0000000001093749
   45        0.0000000004744211
   46        0.0000000005535853
   47        0.0000000000300560
   48        0.0000017738770187
   49       -0.0000019313681163
   50        0.0000000005579191
Sym= A
 Ene=   -1.1132072152984407
Spin= Alpha
Occup=  2.0000
    1       -0.0000127797429151
    2       -0.0001119675315807
    3       -0.0006321215039142
    4       -0.0027065431965065
    5       -0.0097523800617530
    6       -0.0269231766115850
    7       -0.0579722946569719
    8       -0.0479109670994784
    9        0.1945965217313135
   10        0.3909352213405554
   11       -0.5813893466189152
   12       -0.4950332548976076
   13       -0.0000000001042853
   14        0.0000000000855764
   15       -0.0001476361181845
   16       -0.0000000008139023
   17        0.0000000006662442
   18       -0.0011640692231738
   19       -0.0000000036800482
   20        0.0000000030165821
   21       -0.0051634786048851
   22       -0.0000000088129291
   23        0.0000000071446744
   24       -0.0127180904255904
   25       -0.0000000132440866
   26        0.0000000111249846
   27       -0.0176003347772631
   28        0.0000000055901007
   29       -0.0000000017583670
   30        0.0036506475935158
   31        0.0000000518188693
   32       -0.0000000512944651
   33        0.0582803971072279
   34        0.0000000304582724
   35       -0.0000000274669254
   36        0.0112041173001579
   37       -0.0200163872881920
   38       -0.0000000010756649
   39        0.0000000026246691
   40        0.0000000004691092
   41        0.0000000000255506
   42       -0.0007660548833682
   43       -0.0061821372844517
   44       -0.0256010856226522
   45       -0.0930665006385643
   46       -0.0824714791071014
   47       -0.0125609291985972
   48       -0.0000000065790045
   49       -0.0000000064422206
   50       -0.0289970874159296
Sym= A
 Ene=  -0.62060016792175909
Spin= Alpha
Occup=  2.0000
    1        0.0000038593605009
    2        0.0000340256852479
    3        0.0001903586435805
    4        0.0008252167411494
    5        0.0029265541208447
    6        0.0082645967936173
    7        0.0172627711084401
    8        0.0153638540800060
    9       -0.0630350872126018
   10       -0.1167495894825345
   11        0.1699157174687989
   12        0.3061244676917198
   13       -0.0000000000474984
   14       -0.0000000001807097
   15       -0.0010032240145205
   16       -0.0000000003861371
   17       -0.0000000014599454
   18       -0.0078443284537944
   19       -0.0000000016657619
   20       -0.0000000063812748
   21       -0.0353746577830255
   22       -0.0000000043175830
   23       -0.0000000162837529
   24       -0.0855331158062414
   25       -0.0000000054255595
   26       -0.0000000214770768
   27       -0.1240013747562538
   28        0.0000000013112443
   29        0.0000000093495679
   30        0.0530341588182147
   31        0.0000000289221748
   32        0.0000000984914957
   33        0.4371470380255381
   34        0.0000000035070682
   35        0.0000000314991054
   36        0.2705537446911386
   37       -0.0560574765870109
   38       -0.0000000024477031
   39        0.0000000162415566
   40        0.0000000000338530
   41        0.0000000000060242
   42       -0.0013415326120030
   43       -0.0107484519595438
   44       -0.0473688776135630
   45       -0.1664414696236540
   46       -0.2755619043378917
   47       -0.0265815606996056
   48        0.0000000036463081
   49        0.0000000016523770
   50       -0.0445194234573989
Sym= A
 Ene=  -0.47140792184780145
Spin= Alpha
Occup=  2.0000
    1       -0.0000000000013171
    2       -0.0000000000115346
    3       -0.0000000000651553
    4       -0.0000000002788125
    5       -0.0000000010074593
    6       -0.0000000027763718
    7       -0.0000000060940572
    8       -0.0000000048088893
    9        0.0000000217234672
   10        0.0000000389595377
   11       -0.0000000588089064
   12       -0.0000001055374282
   13       -0.0003194785038384
   14       -0.0011833877538011
   15        0.0000000000395069
   16       -0.0024975960825858
   17       -0.0092514036350771
   18        0.0000000003648929
   19       -0.0112800357389103
   20       -0.0417826420850643
   21        0.0000000013168846
   22       -0.0272835511601879
   23       -0.1010616375518311
   24        0.0000000046979165
   25       -0.0397151357135459
   26       -0.1471097481631966
   27        0.0000000013475666
   28        0.0187898875315533
   29        0.0695999541469655
   30        0.0000000062085587
   31        0.1449652442953734
   32        0.5369693116613620
   33       -0.0000000100127731
   34        0.1324072859413694
   35        0.4904529877349603
   36       -0.0000000570601120
   37        0.0000000013104039
   38       -0.0036464807150072
   39       -0.0135070067491015
   40        0.0000000038009024
   41       -0.0000000333112394
   42        0.0000000001220162
   43        0.0000000004741984
   44        0.0000000049105894
   45        0.0000000029039310
   46        0.0000000040361947
   47        0.0000001188614695
   48        0.0079030342920016
   49        0.0292738170639596
   50       -0.0000000050244187
Sym= A
 Ene=  -0.47140792074588139
Spin= Alpha
Occup=  2.0000
    1       -0.0000000000010575
    2       -0.0000000000092374
    3       -0.0000000000523755
    4       -0.0000000002229297
    5       -0.0000000008093509
    6       -0.0000000022094728
    7       -0.0000000048282603
    8       -0.0000000038220610
    9        0.0000000152117382
   10        0.0000000328972570
   11       -0.0000000412784837
   12       -0.0000000499603790
   13        0.0011833877467659
   14       -0.0003194785045545
   15        0.0000000000058790
   16        0.0092514035378613
   17       -0.0024975960795592
   18        0.0000000000495685
   19        0.0417826419632139
   20       -0.0112800357768145
   21        0.0000000002096199
   22        0.1010616360024933
   23       -0.0272835511422816
   24        0.0000000005779738
   25        0.1471097468827006
   26       -0.0397151357413743
   27        0.0000000006784251
   28       -0.0695999527814684
   29        0.0187898874940725
   30       -0.0000000004832668
   31       -0.5369693094761703
   32        0.1449652445011717
   33       -0.0000000067245590
   34       -0.4904529901489404
   35        0.1324072862367528
   36       -0.0000000149655245
   37       -0.0000000159067643
   38        0.0135070059975522
   39       -0.0036464819330935
   40       -0.0000000188011174
   41       -0.0000000254063298
   42       -0.0000000001317206
   43       -0.0000000009725953
   44       -0.0000000049143933
   45       -0.0000000161460531
   46       -0.0000000427572420
   47        0.0000000300779894
   48       -0.0292738189417237
   49        0.0079030328932615
   50       -0.0000000063326800
Sym= A
 Ene=   0.12564852319255279
Spin= Alpha
Occup=  0.0000
    1       -0.0000035519864317
    2       -0.0000318635169062
    3       -0.0001738007520376
    4       -0.0007795505782918
    5       -0.0026429519857882
    6       -0.0079314562634750
    7       -0.0151487933076083
    8       -0.0162608373620988
    9        0.0663110425730357
   10        0.0914194580845030
   11       -0.0406931615282194
   12       -0.8825121913680377
   13       -0.0000000000142878
   14        0.0000000000967862
   15       -0.0004859769343494
   16       -0.0000000001677683
   17        0.0000000007545902
   18       -0.0037011571137606
   19       -0.0000000004619049
   20        0.0000000034202362
   21       -0.0172509923830687
   22       -0.0000000022098965
   23        0.0000000082291937
   24       -0.0398915029309428
   25        0.0000000000090628
   26        0.0000000121401365
   27       -0.0639498828451031
   28       -0.0000000045920208
   29       -0.0000000062158766
   30        0.0401156154394713
   31        0.0000000346984835
   32       -0.0000000433748916
   33        0.1785148247644257
   34       -0.0000000569566133
   35       -0.0000000375152899
   36        0.6132397556114603
   37        0.0171648724665689
   38       -0.0000000010984560
   39        0.0000000092035394
   40        0.0000000000113404
   41        0.0000000000029763
   42        0.0002658101842958
   43        0.0052575534658574
   44        0.0010078920011389
   45        0.1270143356489704
   46       -0.0520762184404909
   47        1.5096130180492013
   48        0.0000000011954009
   49       -0.0000000024975193
   50        0.0009599131293982
Sym= A
 Ene=   0.29616090893176089
Spin= Alpha
Occup=  0.0000
    1       -0.0000013396144946
    2       -0.0000119184731664
    3       -0.0000658003564282
    4       -0.0002903968427491
    5       -0.0010059699284374
    6       -0.0029333601557292
    7       -0.0058511094323592
    8       -0.0057616401265729
    9        0.0235761425922321
   10        0.0388251917115982
   11       -0.0017816625549596
   12       -0.3662065165219464
   13        0.0000000000275311
   14       -0.0000000000471642
   15       -0.0003864179356061
   16        0.0000000002154333
   17       -0.0000000003701250
   18       -0.0029745036714411
   19        0.0000000009722486
   20       -0.0000000016654690
   21       -0.0136980198982855
   22        0.0000000023561260
   23       -0.0000000040558124
   24       -0.0322820127881957
   25        0.0000000034201216
   26       -0.0000000058451711
   27       -0.0499305436497492
   28       -0.0000000015827856
   29        0.0000000027698912
   30        0.0281988830567380
   31       -0.0000000131674839
   32        0.0000000227169338
   33        0.1802160510370919
   34       -0.0000000055532645
   35        0.0000000142320284
   36        0.8689295067031738
   37        0.1459763353444557
   38       -0.0000000177903441
   39        0.0000000283554450
   40       -0.0000000000028297
   41       -0.0000000000010377
   42        0.0018931402352203
   43        0.0057447513744738
   44        0.0955669664131892
   45       -0.0448795782736533
   46        1.8665939221085923
   47       -1.0970755479408636
   48       -0.0000000207580703
   49        0.0000000109352770
   50        0.0613063119803740
Sym= A
 Ene=   0.70949114363096033
Spin= Alpha
Occup=  0.0000
    1       -0.0000033186294714
    2       -0.0000277213897136
    3       -0.0001676219094413
    4       -0.0006535099034291
    5       -0.0026606972665479
    6       -0.0062124348936181
    7       -0.0170244589931392
    8       -0.0075142121806208
    9        0.0339740551731779
   10        0.1607144558416033
   11       -0.4228589903537332
   12       -0.1292325003719178
   13       -0.0000000000114712
   14        0.0000000011136952
   15        0.0010167967326386
   16       -0.0000000000896673
   17        0.0000000103343652
   18        0.0090483543128855
   19       -0.0000000004051050
   20        0.0000000381113984
   21        0.0350996058139746
   22       -0.0000000009796105
   23        0.0000001239258039
   24        0.1063551183595267
   25       -0.0000000014285810
   26        0.0000000870973656
   27        0.0921794842809565
   28        0.0000000006862916
   29        0.0000000899047640
   30        0.0436857366333257
   31        0.0000000052519081
   32       -0.0000013345537041
   33       -1.0647835411280036
   34        0.0000000045637409
   35        0.0000013707179862
   36        1.4189217166787045
   37       -0.0280245031068458
   38       -0.0000000004405195
   39       -0.0000000250819735
   40       -0.0000000000045303
   41       -0.0000000000009193
   42       -0.0005284350065996
   43        0.0009701902706418
   44       -0.0326652543007535
   45        0.1005558624329872
   46       -0.0125858158866795
   47        0.5817051806177622
   48        0.0000000004036920
   49       -0.0000000349012221
   50        0.3067364714022372
Sym= A
 Ene=   0.72848994101703612
Spin= Alpha
Occup=  0.0000
    1        0.0000000000013792
    2        0.0000000000119308
    3        0.0000000000686170
    4        0.0000000002865980
    5        0.0000000010676562
    6        0.0000000028253442
    7        0.0000000065000244
    8        0.0000000047500365
    9       -0.0000000211032226
   10       -0.0000000468558309
   11       -0.0000000234938195
   12        0.0000007284884608
   13        0.0000000964813389
   14        0.0010709401761600
   15       -0.0000000011636583
   16        0.0000008912241970
   17        0.0098915139324931
   18       -0.0000000102381498
   19        0.0000033047674159
   20        0.0366804395173855
   21       -0.0000000402647876
   22        0.0000106629050834
   23        0.1183470555345356
   24       -0.0000001196941848
   25        0.0000076679341356
   26        0.0851318613599118
   27       -0.0000001094058349
   28        0.0000074490056296
   29        0.0825761641947476
   30       -0.0000000376967201
   31       -0.0001134683218324
   32       -1.2592087625969379
   33        0.0000011751894100
   34        0.0001139764571840
   35        1.2648197624122857
   36       -0.0000016905850472
   37        0.0000000408196731
   38        0.0000037811276275