[Molden Format]
[GTO]
    1 0
 s  12 1.00
  183564.1410000    1.0000000000
   24897.6149000    0.0000000000
    5331.3683900    0.0000000000
    1447.4721400    0.0000000000
     457.4692220    0.0000000000
     160.9092540    0.0000000000
      61.3372865    0.0000000000
      24.5295705    0.0000000000
       6.7882804    0.0000000000
       2.6192814    0.0000000000
       0.5404890    0.0000000000
       0.1952371    0.0000000000
 s  12 1.00
  183564.1410000    0.0000000000
   24897.6149000    1.0000000000
    5331.3683900    0.0000000000
    1447.4721400    0.0000000000
     457.4692220    0.0000000000
     160.9092540    0.0000000000
      61.3372865    0.0000000000
      24.5295705    0.0000000000
       6.7882804    0.0000000000
       2.6192814    0.0000000000
       0.5404890    0.0000000000
       0.1952371    0.0000000000
 s  12 1.00
  183564.1410000    0.0000000000
   24897.6149000    0.0000000000
    5331.3683900    1.0000000000
    1447.4721400    0.0000000000
     457.4692220    0.0000000000
     160.9092540    0.0000000000
      61.3372865    0.0000000000
      24.5295705    0.0000000000
       6.7882804    0.0000000000
       2.6192814    0.0000000000
       0.5404890    0.0000000000
       0.1952371    0.0000000000
 s  12 1.00
  183564.1410000    0.0000000000
   24897.6149000    0.0000000000
    5331.3683900    0.0000000000
    1447.4721400    1.0000000000
     457.4692220    0.0000000000
     160.9092540    0.0000000000
      61.3372865    0.0000000000
      24.5295705    0.0000000000
       6.7882804    0.0000000000
       2.6192814    0.0000000000
       0.5404890    0.0000000000
       0.1952371    0.0000000000
 s  12 1.00
  183564.1410000    0.0000000000
   24897.6149000    0.0000000000
    5331.3683900    0.0000000000
    1447.4721400    0.0000000000
     457.4692220    1.0000000000
     160.9092540    0.0000000000
      61.3372865    0.0000000000
      24.5295705    0.0000000000
       6.7882804    0.0000000000
       2.6192814    0.0000000000
       0.5404890    0.0000000000
       0.1952371    0.0000000000
 s  12 1.00
  183564.1410000    0.0000000000
   24897.6149000    0.0000000000
    5331.3683900    0.0000000000
    1447.4721400    0.0000000000
     457.4692220    0.0000000000
     160.9092540    1.0000000000
      61.3372865    0.0000000000
      24.5295705    0.0000000000
       6.7882804    0.0000000000
       2.6192814    0.0000000000
       0.5404890    0.0000000000
       0.1952371    0.0000000000
 s  12 1.00
  183564.1410000    0.0000000000
   24897.6149000    0.0000000000
    5331.3683900    0.0000000000
    1447.4721400    0.0000000000
     457.4692220    0.0000000000
     160.9092540    0.0000000000
      61.3372865    1.0000000000
      24.5295705    0.0000000000
       6.7882804    0.0000000000
       2.6192814    0.0000000000
       0.5404890    0.0000000000
       0.1952371    0.0000000000
 s  12 1.00
  183564.1410000    0.0000000000
   24897.6149000    0.0000000000
    5331.3683900    0.0000000000
    1447.4721400    0.0000000000
     457.4692220    0.0000000000
     160.9092540    0.0000000000
      61.3372865    0.0000000000
      24.5295705    1.0000000000
       6.7882804    0.0000000000
       2.6192814    0.0000000000
       0.5404890    0.0000000000
       0.1952371    0.0000000000
 s  12 1.00
  183564.1410000    0.0000000000
   24897.6149000    0.0000000000
    5331.3683900    0.0000000000
    1447.4721400    0.0000000000
     457.4692220    0.0000000000
     160.9092540    0.0000000000
      61.3372865    0.0000000000
      24.5295705    0.0000000000
       6.7882804    1.0000000000
       2.6192814    0.0000000000
       0.5404890    0.0000000000
       0.1952371    0.0000000000
 s  12 1.00
  183564.1410000    0.0000000000
   24897.6149000    0.0000000000
    5331.3683900    0.0000000000
    1447.4721400    0.0000000000
     457.4692220    0.0000000000
     160.9092540    0.0000000000
      61.3372865    0.0000000000
      24.5295705    0.0000000000
       6.7882804    0.0000000000
       2.6192814    1.0000000000
       0.5404890    0.0000000000
       0.1952371    0.0000000000
 s  12 1.00
  183564.1410000    0.0000000000
   24897.6149000    0.0000000000
    5331.3683900    0.0000000000
    1447.4721400    0.0000000000
     457.4692220    0.0000000000
     160.9092540    0.0000000000
      61.3372865    0.0000000000
      24.5295705    0.0000000000
       6.7882804    0.0000000000
       2.6192814    0.0000000000
       0.5404890    1.0000000000
       0.1952371    0.0000000000
 s  12 1.00
  183564.1410000    0.0000000000
   24897.6149000    0.0000000000
    5331.3683900    0.0000000000
    1447.4721400    0.0000000000
     457.4692220    0.0000000000
     160.9092540    0.0000000000
      61.3372865    0.0000000000
      24.5295705    0.0000000000
       6.7882804    0.0000000000
       2.6192814    0.0000000000
       0.5404890    0.0000000000
       0.1952371    1.0000000000
 p   8 1.00
     456.4191650    1.0000000000
     105.0525040    0.0000000000
      32.7850628    0.0000000000
      11.7457206    0.0000000000
       4.4506222    0.0000000000
       1.7183644    0.0000000000
       0.5491942    0.0000000000
       0.1655015    0.0000000000
 p   8 1.00
     456.4191650    0.0000000000
     105.0525040    1.0000000000
      32.7850628    0.0000000000
      11.7457206    0.0000000000
       4.4506222    0.0000000000
       1.7183644    0.0000000000
       0.5491942    0.0000000000
       0.1655015    0.0000000000
 p   8 1.00
     456.4191650    0.0000000000
     105.0525040    0.0000000000
      32.7850628    1.0000000000
      11.7457206    0.0000000000
       4.4506222    0.0000000000
       1.7183644    0.0000000000
       0.5491942    0.0000000000
       0.1655015    0.0000000000
 p   8 1.00
     456.4191650    0.0000000000
     105.0525040    0.0000000000
      32.7850628    0.0000000000
      11.7457206    1.0000000000
       4.4506222    0.0000000000
       1.7183644    0.0000000000
       0.5491942    0.0000000000
       0.1655015    0.0000000000
 p   8 1.00
     456.4191650    0.0000000000
     105.0525040    0.0000000000
      32.7850628    0.0000000000
      11.7457206    0.0000000000
       4.4506222    1.0000000000
       1.7183644    0.0000000000
       0.5491942    0.0000000000
       0.1655015    0.0000000000
 p   8 1.00
     456.4191650    0.0000000000
     105.0525040    0.0000000000
      32.7850628    0.0000000000
      11.7457206    0.0000000000
       4.4506222    0.0000000000
       1.7183644    1.0000000000
       0.5491942    0.0000000000
       0.1655015    0.0000000000
 p   8 1.00
     456.4191650    0.0000000000
     105.0525040    0.0000000000
      32.7850628    0.0000000000
      11.7457206    0.0000000000
       4.4506222    0.0000000000
       1.7183644    0.0000000000
       0.5491942    1.0000000000
       0.1655015    0.0000000000
 p   8 1.00
     456.4191650    0.0000000000
     105.0525040    0.0000000000
      32.7850628    0.0000000000
      11.7457206    0.0000000000
       4.4506222    0.0000000000
       1.7183644    0.0000000000
       0.5491942    0.0000000000
       0.1655015    1.0000000000
 d   1 1.00
       0.6031554    1.0000000000

    2 0
 s   6 1.00
      82.9687389    1.0000000000
      12.4571508    0.0000000000
       2.8338242    0.0000000000
       0.8001641    0.0000000000
       0.2586294    0.0000000000
       0.0899767    0.0000000000
 s   6 1.00
      82.9687389    0.0000000000
      12.4571508    1.0000000000
       2.8338242    0.0000000000
       0.8001641    0.0000000000
       0.2586294    0.0000000000
       0.0899767    0.0000000000
 s   6 1.00
      82.9687389    0.0000000000
      12.4571508    0.0000000000
       2.8338242    1.0000000000
       0.8001641    0.0000000000
       0.2586294    0.0000000000
       0.0899767    0.0000000000
 s   6 1.00
      82.9687389    0.0000000000
      12.4571508    0.0000000000
       2.8338242    0.0000000000
       0.8001641    1.0000000000
       0.2586294    0.0000000000
       0.0899767    0.0000000000
 s   6 1.00
      82.9687389    0.0000000000
      12.4571508    0.0000000000
       2.8338242    0.0000000000
       0.8001641    0.0000000000
       0.2586294    1.0000000000
       0.0899767    0.0000000000
 s   6 1.00
      82.9687389    0.0000000000
      12.4571508    0.0000000000
       2.8338242    0.0000000000
       0.8001641    0.0000000000
       0.2586294    0.0000000000
       0.0899767    1.0000000000
 p   1 1.00
       0.5024489    1.0000000000

[SCFCONV]
scf-first  1  THROUGH   9
     -460.0240452423
     -460.0853453074
     -460.0898938373
     -460.0905105901
     -460.0905516089
     -460.0905523160
     -460.0905523386
     -460.0905523418
     -460.0905523419
[TITLE]
*** Dalton interface to Molden, wave function type : HF            22Nov22   22:
[Atoms] AU
Cl         1    17         0.0000000000         0.0000000000         0.000000000
H          2     1         0.0000000000         0.0000000000         2.408645072
[5D7F]
[9G]
[MO]
Sym= A
 Ene=   -104.84259583162056
Spin= Alpha
Occup=  2.0000
           1  -1.6033626913426581E-004
           2  -1.4136834343520580E-003
           3  -7.8564150776206133E-003
           4  -3.3582118022481032E-002
           5 -0.11308762283936585
           6 -0.28392383499494400
           7 -0.42954509032749477
           8 -0.26310653408536594
           9  -2.2828579857896162E-002
          10   4.4196867267850028E-003
          11  -1.3499626128801153E-003
          12   6.0376293880893541E-004
          13  -4.1286591802251741E-021
          14  -1.2298040202657896E-023
          15  -1.5443394752483697E-006
          16   1.6571574072106037E-020
          17   4.7778118847793267E-023
          18  -1.9744744632790981E-005
          19  -4.7795978617458115E-020
          20  -1.4549206570301195E-022
          21  -6.9164981222663726E-005
          22   1.0906438188957919E-019
          23   3.0980034633349778E-022
          24   1.9138331136917849E-005
          25  -2.0408123075935012E-019
          26  -6.1744855014052402E-022
          27  -5.1864430411286957E-005
          28   2.9244974568307941E-019
          29   8.6899495042063444E-022
          30   8.8017694084156680E-005
          31  -1.7205941727615109E-019
          32  -4.4587425581258877E-022
          33  -1.6216716226199454E-004
          34  -1.5792725568084823E-018
          35  -4.5808490485286370E-021
          36   7.0376436376645056E-005
          37  -5.5928713558094377E-005
          38   4.2447029027808871E-017
          39   1.2461119782179406E-019
          40   3.9050884310533069E-018
          41  -2.2485053990809154E-018
          42  -1.1835120958824077E-006
          43   9.2853179386144618E-006
          44  -4.2335854149151772E-005
          45   5.3969100084042119E-005
          46   8.3165416776722422E-005
          47  -1.5070741347792646E-004
          48   4.8622371172866298E-018
          49   1.4273817328772949E-020
          50  -1.2613893019129772E-004
Sym= A
 Ene=   -10.567997379487682
Spin= Alpha
Occup=  2.0000
           1  -4.5120324999008007E-005
           2  -3.9419432030736245E-004
           3  -2.2333944287972179E-003
           4  -9.4979485741482558E-003
           5  -3.4325128156322049E-002
           6  -9.2837661898904938E-002
           7 -0.19732237851261561
           8 -0.14897129350899802
           9  0.49311931248398416
          10  0.62579323103547702
          11   4.6956776814628745E-002
          12  -1.1468084138377323E-002
          13   6.2150583779456746E-020
          14  -1.2154276626070673E-021
          15   2.0421869638843813E-005
          16  -2.4949460642474949E-019
          17   4.8380100980723499E-021
          18   1.3821987263420036E-004
          19   7.1943415576628934E-019
          20  -1.4150449296025279E-020
          21   6.5917139227784634E-004
          22  -1.6420972385234047E-018
          23   3.1721775475862615E-020
          24   1.3921938844008090E-003
          25   3.0720486848325573E-018
          26  -6.0324848268242118E-020
          27   3.0560256073409288E-003
          28  -4.4029998953336227E-018
          29   8.6046882704832400E-020
          30   2.3912071362201695E-004
          31   2.5886686050922169E-018
          32  -4.8911708834742716E-020
          33   2.3634056556954275E-003
          34   2.3772821384015591E-017
          35  -4.6172300115814368E-019
          36  -1.0211899021905519E-003
          37   9.4412317846520686E-004
          38  -6.3899348707833543E-016
          39   1.2448965393869166E-017
          40   2.2833789233798056E-016
          41  -5.0157186196655154E-017
          42   1.7326050246389462E-008
          43   2.7300258778120561E-005
          44   1.7048666871788019E-004
          45  -1.2010250718414780E-004
          46  -1.6253362577776660E-003
          47   2.7418399318751142E-003
          48  -7.3195644491590937E-017
          49   1.4260034740878246E-018
          50   1.7310345682932412E-003
Sym= A
 Ene=   -8.0355641193152962
Spin= Alpha
Occup=  2.0000
           1  -2.5641187780809541E-007
           2  -2.2586949452169436E-006
           3  -1.2649180604400537E-005
           4  -5.4714946947877552E-005
           5  -1.9411894093301359E-004
           6  -5.4435252881230483E-004
           7  -1.1251690393449820E-003
           8  -9.2379796712409334E-004
           9   3.6524681675821316E-003
          10   2.7666282148820489E-003
          11  -4.8414488962220738E-004
          12   4.0118765641409599E-004
          13   8.0635652632532266E-021
          14  -3.0161151788178489E-021
          15  -4.5968124427245623E-003
          16  -3.2266108108608955E-020
          17   1.2127523491484194E-020
          18  -3.6436711781618378E-002
          19   9.3527660206792981E-020
          20  -3.4873971584781208E-020
          21 -0.15528086281220316
          22  -2.1212902950071683E-019
          23   7.9879868605374727E-020
          24 -0.37695257211971472
          25   3.9892715968143982E-019
          26  -1.4895576021307700E-019
          27 -0.46245425998758272
          28  -5.6993407887291197E-019
          29   2.1366175693370259E-019
          30 -0.16879864713635029
          31   3.3746264323999195E-019
          32  -1.2665266087579861E-019
          33  -2.8270435059016179E-003
          34   3.0833076754501874E-018
          35  -1.1554444494653407E-018
          36  -7.0352276316992248E-004
          37  -1.4656088322073573E-004
          38  -8.2829004895446768E-017
          39   3.1034042229630110E-017
          40  -2.3695984450771425E-016
          41  -2.1717032183375177E-016
          42  -6.5775167589455710E-006
          43   7.7450662333050390E-006
          44  -1.0246514286572017E-004
          45  -5.3495322640975793E-004
          46  -2.4312490190041134E-004
          47   3.9242198713582361E-005
          48  -9.4879313212089092E-018
          49   3.5549010577180679E-018
          50   7.2033905814062628E-004
Sym= A
 Ene=   -8.0326609274500882
Spin= Alpha
Occup=  2.0000
           1  -4.2143266715184219E-022
           2   1.6544411278550123E-021
           3  -7.0653775848145427E-021
           4   1.3283236490406387E-020
           5  -5.7204802022554864E-020
           6   5.6222029870268476E-020
           7  -2.4448921549787291E-019
           8   1.6478939462947860E-019
           9  -1.2437380105183011E-019
          10   1.2549295842594896E-018
          11  -3.1856662406445972E-018
          12   2.4132523781986708E-018
          13  -4.6056537842200053E-003
          14   5.7910326330725108E-011
          15  -9.1045097243365148E-022
          16  -3.6511256391706479E-002
          17   3.8488004982070579E-010
          18  -9.5021467962059256E-021
          19 -0.15562228046255186
          20   1.6699973393558302E-009
          21  -3.5369698566110241E-020
          22 -0.37779482178506035
          23   4.2164992955976363E-009
          24  -9.7470854964965515E-020
          25 -0.46281877323505410
          26   4.7563078557149762E-009
          27  -1.0615665473028656E-019
          28 -0.16688105222994795
          29   1.9079555303368691E-009
          30  -3.9317707475730434E-020
          31  -3.0035348257945521E-003
          32  -6.0764253214376479E-010
          33   3.2674109290134218E-019
          34  -7.9754113690760323E-004
          35  -1.7159612029710091E-009
          36   3.3025378429597651E-018
          37  -8.8677954394920264E-018
          38  -2.3847165244601386E-004
          39  -5.5371583942306779E-010
          40   3.2231260103013579E-012
          41  -1.2098811079127575E-009
          42  -4.0786551434653916E-021
          43   1.8042007803770589E-019
          44   1.1352912613756029E-019
          45   3.0111073209632485E-018
          46  -3.9649705592767871E-018
          47   2.1230915476513785E-018
          48  -2.6094343624698838E-006
          49  -1.2309469748611619E-010
          50   8.5216816752538235E-019
Sym= A
 Ene=   -8.0326609275701717
Spin= Alpha
Occup=  2.0000
           1   2.5036716908472036E-022
           2  -8.9945821335742347E-022
           3   4.4104187617898849E-021
           4  -6.2909323373421972E-021
           5   3.8027271019066395E-020
           6  -1.8892548118839082E-020
           7   1.6945417664052594E-019
           8  -7.2023058944553263E-020
           9  -1.7200964517980145E-020
          10  -9.0178776370021292E-019
          11   2.0921304346156818E-018
          12  -1.0265131405851413E-018
          13  -5.9987069249774552E-011
          14  -4.6056537861196914E-003
          15  -3.0628679962079506E-021
          16  -3.8150653242792100E-010
          17  -3.6511256403798570E-002
          18  -1.3638969301598581E-020
          19  -1.5372897302788875E-009
          20 -0.15562228056148178
          21  -8.7429631876265301E-020
          22  -4.4778281183732823E-009
          23 -0.37779482177117102
          24  -1.6874949843212510E-019
          25  -3.7194182092187342E-009
          26 -0.46281877340001804
          27  -3.2135942684990799E-019
          28  -2.3851481835618595E-009
          29 -0.16688105230173617
          30   2.4413065641124230E-019
          31  -6.3799128102121878E-010
          32  -3.0035338520251038E-003
          33   1.1630820117719178E-018
          34   5.8486704469436445E-010
          35  -7.9754160499141344E-004
          36  -5.1922614021647826E-019
          37   4.5950999838393627E-018
          38   4.6873169481602727E-010
          39  -2.3847163318485963E-004
          40   7.4555878334895424E-010
          41  -1.4180999499345585E-009
          42  -2.3482347850135117E-021
          43  -1.1675244746485748E-019
          44  -2.0444591972734040E-019
          45  -1.9447848926895168E-018
          46   1.2725297707604781E-018
          47  -1.3133572781336466E-018
          48   8.3964248918554288E-011
          49  -2.6093867604412434E-006
          50  -4.5077017535493425E-019
Sym= A
 Ene=   -1.1132072189734585
Spin= Alpha
Occup=  2.0000
           1  -1.2779742858755240E-005
           2  -1.1196753090960176E-004
           3  -6.3212150052470353E-004
           4  -2.7065431783020008E-003
           5  -9.7523800267438048E-003
           6  -2.6923176412263258E-002
           7  -5.7972294305650901E-002
           8  -4.7910966828921431E-002
           9  0.19459652025727864
          10  0.39093521844707085
          11 -0.58138933578350083
          12 -0.49503325799403947
          13  -1.0114743877619532E-019
          14   1.1358547939637225E-019
          15   1.4763606105853885E-004
          16   4.0809710939123454E-019
          17  -4.5511010740793695E-019
          18   1.1640687590968150E-003
          19  -1.1673458636302580E-018
          20   1.3165265359520408E-018
          21   5.1634766822108106E-003
          22   2.6899540638120345E-018
          23  -2.9928686573626090E-018
          24   1.2718085936308420E-002
          25  -4.9954623945960404E-018
          26   5.6196170461717298E-018
          27   1.7600328917124815E-002
          28   7.2038881320232653E-018
          29  -8.0456327491226237E-018
          30  -3.6506496798408973E-003
          31  -4.1203257612399749E-018
          32   4.6950545230065933E-018
          33  -5.8280407157942450E-002
          34  -3.8637761750691262E-017
          35   4.3380080331057509E-017
          36  -1.1204105676202811E-002
          37  -2.0016388415337250E-002
          38   1.0409773051825283E-015
          39  -1.1668230549674133E-015
          40  -1.0724179816123445E-014
          41   9.2805974229935716E-016
          42  -7.6605490520782998E-004
          43  -6.1821373144022324E-003
          44  -2.5601086749357318E-002
          45  -9.3066503020332106E-002
          46  -8.2471481920136994E-002
          47  -1.2560931100238834E-002
          48   1.1924191334817360E-016
          49  -1.3365754406488244E-016
          50   2.8997091075214174E-002
Sym= A
 Ene=  -0.62060017145528312
Spin= Alpha
Occup=  2.0000
           1   3.8593605292785655E-006
           2   3.4025685559649963E-005
           3   1.9035864476749033E-004
           4   8.2521674980547859E-004
           5   2.9265541349016923E-003
           6   8.2645968977259586E-003
           7   1.7262771130135246E-002
           8   1.5363854491788060E-002
           9  -6.3035088842537307E-002
          10 -0.11674958848164831
          11  0.16991571860077559
          12  0.30612446049099140
          13  -1.2461939224216916E-019
          14   1.6440827812522161E-019
          15   1.0032240198963917E-003
          16   3.9400255262302691E-019
          17  -6.5994760630247882E-019
          18   7.8443284800595557E-003
          19  -1.6401170019213362E-018
          20   1.9032261042754971E-018
          21   3.5374657892366504E-002
          22   2.3258846430636514E-018
          23  -4.3434350138435369E-018
          24   8.5533116163568984E-002
          25  -6.6219059003283486E-018
          26   8.1268486838030617E-018
          27  0.12400137496063826
          28   7.9158508818200764E-018
          29  -1.1647355996774400E-017
          30  -5.3034158580953478E-002
          31  -4.6114595402226527E-018
          32   6.8455924901774790E-018
          33 -0.43714703910641106
          34  -4.3989311168508920E-017
          35   6.2882785392671541E-017
          36 -0.27055375413520605
          37  -5.6057473615221981E-002
          38   1.1875842740265792E-015
          39  -1.6902878635371291E-015
          40  -2.0875654711813727E-014
          41   8.0148939199217301E-016
          42  -1.3415326024838377E-003
          43  -1.0748451913849849E-002
          44  -4.7368877322408610E-002
          45 -0.16644146959683495
          46 -0.27556189918937518
          47  -2.6581548131753046E-002
          48   1.3603518895972640E-016
          49  -1.9361966571784924E-016
          50   4.4519422519619614E-002
Sym= A
 Ene=  -0.47140792382696028
Spin= Alpha
Occup=  2.0000
           1   3.8044827740701596E-020
           2  -1.4938311892658614E-019
           3   6.3759862434124498E-019
           4  -1.2001601708897887E-018
           5   5.1509775698129190E-018
           6  -5.1345453179946275E-018
           7   2.1741830826901723E-017
           8  -1.5113187545798561E-017
           9   1.2204316182357147E-017
          10  -1.1599343932803500E-016
          11   3.0192348205976231E-016
          12  -1.8854210218617451E-016
          13  -1.2257540286311137E-003
          14  -3.1825753652768734E-007
          15  -3.5114856766519325E-019
          16  -9.5826116070877477E-003
          17  -2.4879924020236436E-006
          18  -1.4657655715664881E-018
          19  -4.3278495840599437E-002
          20  -1.1236882609180331E-005
          21  -9.8474943845803694E-018
          22 -0.10467972813651494
          23  -2.7179367956468970E-005
          24  -1.8467029149004471E-017
          25 -0.15237640026500909
          26  -3.9562302274654822E-005
          27  -3.6545346469266721E-017
          28   7.2091689642721404E-002
          29   1.8714601011649466E-005
          30   2.9566558326982007E-017
          31  0.55619326248015877
          32   1.4440587196211404E-004
          33   1.3064391849998513E-016
          34  0.50801162120491816
          35   1.3193436894654343E-004
          36  -1.3371402016420463E-016
          37   7.3860635947374532E-016
          38   1.3990574361385186E-002
          39   3.6368840169337360E-006
          40  -2.7355015488521967E-009
          41  -1.3475789830827710E-008
          42  -1.4139494140753288E-019
          43  -1.7406783133949540E-017
          44  -2.4904223889267713E-017
          45  -2.9047302410857171E-016
          46   2.4691200507356462E-016
          47  -1.9743078989189797E-016
          48   3.0321846541351272E-002
          49   7.8656018997720146E-006
          50  -7.2085880522372617E-017
Sym= A
 Ene=  -0.47140792392151382
Spin= Alpha
Occup=  2.0000
           1  -2.7954892073600910E-020
           2   1.0031399983863765E-019
           3  -4.9274124794447777E-019
           4   7.0020352144612468E-019
           5  -4.2514589053635320E-018
           6   2.0897258039800037E-018
           7  -1.8951691617880053E-017
           8   8.0069185391974549E-018
           9   2.0483717790559432E-018
          10   1.0096977842200716E-016
          11  -2.3415618336200299E-016
          12   1.1396495986417267E-016
          13   3.1826943929806595E-007
          14  -1.2257540278541419E-003
          15   3.4400203713729882E-019
          16   2.4880257009134515E-006
          17  -9.5826116004820872E-003
          18   1.5334096603178295E-018
          19   1.1237435162228095E-005
          20  -4.3278495818517754E-002
          21   9.8223698024739643E-018
          22   2.7179449565740454E-005
          23 -0.10467972804632607
          24   1.8966993076228772E-017
          25   3.9567065477276544E-005
          26 -0.15237640016944307
          27   3.6097905333884736E-017
          28  -1.8728817286979414E-005
          29   7.2091689688250790E-002
          30  -2.7394233675356957E-017
          31  -1.4439709768217200E-004
          32  0.55619326342657061
          33  -1.3067759935046847E-016
          34  -1.3193554316570522E-004
          35  0.50801162082846474
          36   5.7088842273383292E-017
          37  -5.1259983713567230E-016
          38  -3.6339665720175689E-006
          39   1.3990569509502771E-002
          40  -1.1545531135975101E-008
          41   2.7790198979953387E-009
          42   2.6780446922178660E-019
          43   1.3062644595747304E-017
          44   2.3013245948273290E-017
          45   2.1756204988115209E-016
          46  -1.4086800528542469E-016
          47   1.4694072482705178E-016
          48  -7.8683657871908370E-006
          49   3.0321845355170140E-002
          50   5.0290561761912596E-017
Sym= A
 Ene=   0.12564852189506079
Spin= Alpha
Occup=  0.0000
           1  -3.5519863657382320E-006
           2  -3.1863516493265416E-005
           3  -1.7380074930492157E-004
           4  -7.7955056992303872E-004
           5  -2.6429519380931133E-003
           6  -7.9314561690231305E-003
           7  -1.5148793001304985E-002
           8  -1.6260837282479131E-002
           9   6.6311042022202560E-002
          10   9.1419454756091686E-002
          11  -4.0693148733704325E-002
          12 -0.88251220195463753
          13  -4.7133860387178706E-019
          14   4.5037439052397345E-019
          15   4.8597691195613018E-004
          16   1.8313270905924731E-018
          17  -1.7935938343181064E-018
          18   3.7011569275795645E-003
          19  -5.5700121129218116E-018
          20   5.2416854258558253E-018
          21   1.7250991560820682E-002
          22   1.1896841744817691E-017
          23  -1.1762819434690787E-017
          24   3.9891500905251134E-002
          25  -2.3576115488851269E-017
          26   2.2347890447284253E-017
          27   6.3949880145785107E-002
          28   3.2929261517541150E-017
          29  -3.1885393483902952E-017
          30  -4.0115614827869829E-002
          31  -1.8998019132109804E-017
          32   1.8162586129657027E-017
          33 -0.17851481041481343
          34  -1.7782700541225151E-016
          35   1.7116073521633588E-016
          36 -0.61323974096984168
          37   1.7164869965111736E-002
          38   4.7901753338778329E-015
          39  -4.6139640270013155E-015
          40  -5.0384083399246883E-014
          41   2.8883199258460359E-015
          42   2.6581014840181206E-004
          43   5.2575532969680646E-003
          44   1.0078901744900721E-003
          45  0.12701433511365820
          46  -5.2076254648976486E-002
          47   1.5096130489055766
          48   5.4870534571679022E-016
          49  -5.2852023410503465E-016
          50  -9.5991176762943726E-004
Sym= A
 Ene=   0.29616090754435154
Spin= Alpha
Occup=  0.0000
           1  -1.3396146299184491E-006
           2  -1.1918474523784614E-005
           3  -6.5800363722000110E-005
           4  -2.9039687417552684E-004
           5  -1.0059700409545960E-003
           6  -2.9333604672442805E-003
           7  -5.8511101104449436E-003
           8  -5.7616406749957999E-003
           9   2.3576144874353430E-002
          10   3.8825196297672948E-002
          11  -1.7816692859111724E-003
          12 -0.36620653242557910
          13   1.0739975256186755E-018
          14  -6.2940900586005433E-019
          15   3.8641794558392259E-004
          16  -4.4240475910022926E-018
          17   2.5423383541614830E-018
          18   2.9745037439107202E-003
          19   1.2225962467778332E-017
          20  -7.2549757817377534E-018
          21   1.3698020229812287E-002
          22  -2.9389357230545872E-017
          23   1.6778729204233427E-017
          24   3.2282013597082694E-002
          25   5.2644104089661132E-017
          26  -3.1017178136842071E-017