[Molden Format]
[GTO]
    1 0
 s   9 1.00
     601.3455000    1.0000000000
     109.5358000    0.0000000000
      38.9604300    0.0000000000
      29.6448100    0.0000000000
       9.0535500    0.0000000000
       2.9445010    0.0000000000
       2.1293860    0.0000000000
       0.5940930    0.0000000000
       0.2325240    0.0000000000
 s   9 1.00
     601.3455000    0.0000000000
     109.5358000    1.0000000000
      38.9604300    0.0000000000
      29.6448100    0.0000000000
       9.0535500    0.0000000000
       2.9445010    0.0000000000
       2.1293860    0.0000000000
       0.5940930    0.0000000000
       0.2325240    0.0000000000
 s   9 1.00
     601.3455000    0.0000000000
     109.5358000    0.0000000000
      38.9604300    1.0000000000
      29.6448100    0.0000000000
       9.0535500    0.0000000000
       2.9445010    0.0000000000
       2.1293860    0.0000000000
       0.5940930    0.0000000000
       0.2325240    0.0000000000
 s   9 1.00
     601.3455000    0.0000000000
     109.5358000    0.0000000000
      38.9604300    0.0000000000
      29.6448100    1.0000000000
       9.0535500    0.0000000000
       2.9445010    0.0000000000
       2.1293860    0.0000000000
       0.5940930    0.0000000000
       0.2325240    0.0000000000
 s   9 1.00
     601.3455000    0.0000000000
     109.5358000    0.0000000000
      38.9604300    0.0000000000
      29.6448100    0.0000000000
       9.0535500    1.0000000000
       2.9445010    0.0000000000
       2.1293860    0.0000000000
       0.5940930    0.0000000000
       0.2325240    0.0000000000
 s   9 1.00
     601.3455000    0.0000000000
     109.5358000    0.0000000000
      38.9604300    0.0000000000
      29.6448100    0.0000000000
       9.0535500    0.0000000000
       2.9445010    1.0000000000
       2.1293860    0.0000000000
       0.5940930    0.0000000000
       0.2325240    0.0000000000
 s   9 1.00
     601.3455000    0.0000000000
     109.5358000    0.0000000000
      38.9604300    0.0000000000
      29.6448100    0.0000000000
       9.0535500    0.0000000000
       2.9445010    0.0000000000
       2.1293860    1.0000000000
       0.5940930    0.0000000000
       0.2325240    0.0000000000
 s   9 1.00
     601.3455000    0.0000000000
     109.5358000    0.0000000000
      38.9604300    0.0000000000
      29.6448100    0.0000000000
       9.0535500    0.0000000000
       2.9445010    0.0000000000
       2.1293860    0.0000000000
       0.5940930    1.0000000000
       0.2325240    0.0000000000
 s   9 1.00
     601.3455000    0.0000000000
     109.5358000    0.0000000000
      38.9604300    0.0000000000
      29.6448100    0.0000000000
       9.0535500    0.0000000000
       2.9445010    0.0000000000
       2.1293860    0.0000000000
       0.5940930    0.0000000000
       0.2325240    1.0000000000
 p   6 1.00
      38.9604300    1.0000000000
       9.0535500    0.0000000000
       2.9445010    0.0000000000
       2.1293860    0.0000000000
       0.5940930    0.0000000000
       0.2325240    0.0000000000
 p   6 1.00
      38.9604300    0.0000000000
       9.0535500    1.0000000000
       2.9445010    0.0000000000
       2.1293860    0.0000000000
       0.5940930    0.0000000000
       0.2325240    0.0000000000
 p   6 1.00
      38.9604300    0.0000000000
       9.0535500    0.0000000000
       2.9445010    1.0000000000
       2.1293860    0.0000000000
       0.5940930    0.0000000000
       0.2325240    0.0000000000
 p   6 1.00
      38.9604300    0.0000000000
       9.0535500    0.0000000000
       2.9445010    0.0000000000
       2.1293860    1.0000000000
       0.5940930    0.0000000000
       0.2325240    0.0000000000
 p   6 1.00
      38.9604300    0.0000000000
       9.0535500    0.0000000000
       2.9445010    0.0000000000
       2.1293860    0.0000000000
       0.5940930    1.0000000000
       0.2325240    0.0000000000
 p   6 1.00
      38.9604300    0.0000000000
       9.0535500    0.0000000000
       2.9445010    0.0000000000
       2.1293860    0.0000000000
       0.5940930    0.0000000000
       0.2325240    1.0000000000

    2 0
 s   3 1.00
       3.4252509    1.0000000000
       0.6239137    0.0000000000
       0.1688554    0.0000000000
 s   3 1.00
       3.4252509    0.0000000000
       0.6239137    1.0000000000
       0.1688554    0.0000000000
 s   3 1.00
       3.4252509    0.0000000000
       0.6239137    0.0000000000
       0.1688554    1.0000000000

*** Dalton interface to Molden, wave function type :
HF          24Aug22   21:22:13
[Atoms] AU
Cl         1    17         0.0000000000         0.0000000000         0.067474065
H          2     1         0.0000000000         0.0000000000        -2.341171006
[5D7F]
[9G]
[MO]
Sym= A
 Ene=   -103.67851952166620
Spin= Alpha
Occup=  2.0000
    1       -0.1537823160698428
    2       -0.5262827811359401
    3       -0.0383568616296599
    4       -0.4002914921344736
    5       -0.0159439011194398
    6       -0.0307336510559215
    7        0.0260791436885392
    8       -0.0044545915755859
    9        0.0017800299421880
   10        0.0000000000000000
   11        0.0000000000000000
   12        0.0001136275939744
   13        0.0000000000000000
   14        0.0000000000000000
   15       -0.0000050762167581
   16        0.0000000000000000
   17       -0.0000000000000000
   18        0.0001917170416436
   19        0.0000000000000000
   20        0.0000000000000000
   21       -0.0002365945935003
   22       -0.0000000000000000
   23        0.0000000000000000
   24        0.0001904635955943
   25       -0.0000000000000000
   26        0.0000000000000000
   27       -0.0002729875849223
   28       -0.0000389019680512
   29        0.0001151412257458
   30       -0.0003826833818976
Sym= A
 Ene=   -10.497421063411586
Spin= Alpha
Occup=  2.0000
    1       -0.0453850628798995
    2       -0.1930088731439562
    3       -0.0104277862516894
    4       -0.2628037762293668
    5        0.3451035600179096
    6        0.8660362755686901
    7       -0.0925398709166439
    8        0.0856975911584172
    9       -0.0265625507315348
   10        0.0000000000000000
   11       -0.0000000000000000
   12       -0.0018708580289766
   13        0.0000000000000000
   14       -0.0000000000000000
   15       -0.0055735733582758
   16        0.0000000000000000
   17       -0.0000000000000000
   18       -0.0068881034765044
   19       -0.0000000000000000
   20        0.0000000000000000
   21        0.0012033802063441
   22       -0.0000000000000000
   23        0.0000000000000000
   24       -0.0030642317740985
   25       -0.0000000000000000
   26        0.0000000000000000
   27        0.0040275986940819
   28        0.0005075760806913
   29       -0.0012599209606820
   30        0.0056047562499034
Sym= A
 Ene=   -7.9493266542207577
Spin= Alpha
Occup=  2.0000
    1       -0.0005840452480448
    2       -0.0025089082903176
    3       -0.0000883702591387
    4       -0.0035351094702678
    5        0.0051553546807149
    6        0.0127374239943378
    7       -0.0034348286812964
    8       -0.0009990373374141
    9        0.0015091189007662
   10       -0.0000000000000000
   11       -0.0000000000000000
   12        0.1900598780259441
   13       -0.0000000000000000
   14       -0.0000000000000000
   15        0.5623037442746932
   16       -0.0000000000000000
   17        0.0000000000000000
   18        0.3364262107418385
   19        0.0000000000000000
   20       -0.0000000000000000
   21        0.0848011171423599
   22        0.0000000000000000
   23       -0.0000000000000000
   24        0.0272577916743180
   25        0.0000000000000000
   26       -0.0000000000000000
   27       -0.0064693196242227
   28        0.0002281052965472
   29       -0.0001733013228483
   30       -0.0016296595945116
Sym= A
 Ene=   -7.9448238405232470
Spin= Alpha
Occup=  2.0000
    1        0.0000000000000000
    2        0.0000000000000000
    3        0.0000000000000000
    4       -0.0000000000000000
    5       -0.0000000000000000
    6       -0.0000000000000000
    7        0.0000000000000000
    8       -0.0000000000000000
    9        0.0000000000000000
   10       -0.1403674458145035
   11       -0.1289026998036613
   12        0.0000000000000000
   13       -0.4152265720731049
   14       -0.3813122466451366
   15        0.0000000000000000
   16       -0.2477415940245919
   17       -0.2275068837968314
   18        0.0000000000000000
   19       -0.0613371278514943
   20       -0.0563273134313412
   21       -0.0000000000000000
   22       -0.0189690300706882
   23       -0.0174197025714919
   24       -0.0000000000000000
   25        0.0037222763544793
   26        0.0034182530498500
   27       -0.0000000000000000
   28        0.0000000000000000
   29       -0.0000000000000000
   30       -0.0000000000000000
Sym= A
 Ene=   -7.9448238402640321
Spin= Alpha
Occup=  2.0000
    1        0.0000000000000000
    2        0.0000000000000000
    3        0.0000000000000000
    4       -0.0000000000000000
    5        0.0000000000000000
    6       -0.0000000000000000
    7        0.0000000000000000
    8       -0.0000000000000000
    9        0.0000000000000000
   10        0.1289026992101851
   11       -0.1403674462118721
   12        0.0000000000000000
   13        0.3813122452490132
   14       -0.4152265729408078
   15        0.0000000000000000
   16        0.2275068842793743
   17       -0.2477415937043736
   18        0.0000000000000000
   19        0.0563273149586744
   20       -0.0613371269402032
   21       -0.0000000000000000
   22        0.0174197029556965
   23       -0.0189690297186530
   24        0.0000000000000000
   25       -0.0034182532891780
   26        0.0037222761327944
   27       -0.0000000000000000
   28        0.0000000000000000
   29       -0.0000000000000000
   30       -0.0000000000000000
Sym= A
 Ene=   -1.0965274715070623
Spin= Alpha
Occup=  2.0000
    1       -0.0127954485307026
    2       -0.0557835085927428
    3       -0.0002857732689047
    4       -0.0842201800554994
    5        0.1271745700985643
    6        0.4545590610820556
    7       -0.0036029625306637
    8       -0.4245379472582032
    9       -0.6371440656624006
   10       -0.0000000000000000
   11       -0.0000000000000000
   12       -0.0079510973799570
   13       -0.0000000000000000
   14       -0.0000000000000000
   15       -0.0253457530180509
   16       -0.0000000000000000
   17       -0.0000000000000000
   18       -0.0161388193142577
   19       -0.0000000000000000
   20       -0.0000000000000000
   21        0.0019994337342797
   22       -0.0000000000000000
   23       -0.0000000000000000
   24        0.0862439288706296
   25        0.0000000000000000
   26       -0.0000000000000000
   27        0.0293665865327589
   28       -0.0346860268065039
   29       -0.1339865122997341
   30       -0.0550753370590244
Sym= A
 Ene=  -0.58660411869509099
Spin= Alpha
Occup=  2.0000
    1        0.0044891672436442
    2        0.0191675046776449
    3        0.0050348630379145
    4        0.0228766153556831
    5       -0.0368064447947405
    6       -0.2346616682415268
    7        0.0936658209302582
    8        0.0741401649526470
    9        0.4151716963076914
   10       -0.0000000000000000
   11       -0.0000000000000000
   12       -0.0414047373645461
   13       -0.0000000000000000
   14       -0.0000000000000000
   15       -0.1256003699712458
   16       -0.0000000000000000
   17       -0.0000000000000000
   18       -0.1470836188213888
   19       -0.0000000000000000
   20       -0.0000000000000000
   21        0.1126766163398101
   22       -0.0000000000000000
   23       -0.0000000000000000
   24        0.3581042735276954
   25        0.0000000000000000
   26        0.0000000000000000
   27        0.3220343263047701
   28       -0.0573238080820884
   29       -0.2779045554604631
   30       -0.2408509462511464
Sym= A
 Ene=  -0.44533872039786093
Spin= Alpha
Occup=  2.0000
    1       -0.0000000000000000
    2       -0.0000000000000000
    3        0.0000000000000000
    4       -0.0000000000000000
    5        0.0000000000000000
    6       -0.0000000000000000
    7        0.0000000000000000
    8       -0.0000000000000000
    9       -0.0000000000000000
   10       -0.0138879736847165
   11       -0.0513865231622933
   12       -0.0000000000000000
   13       -0.0412334848494773
   14       -0.1525669447683642
   15       -0.0000000000000000
   16       -0.0593665573016729
   17       -0.2196607741924160
   18       -0.0000000000000000
   19        0.0530901837081994
   20        0.1964377186630543
   21        0.0000000000000000
   22        0.1057071659964864
   23        0.3911243840231293
   24        0.0000000000000000
   25        0.1639580115486651
   26        0.6066567625195288
   27        0.0000000000000000
   28        0.0000000000000000
   29        0.0000000000000000
   30        0.0000000000000000
Sym= A
 Ene=  -0.44533871382339929
Spin= Alpha
Occup=  2.0000
    1       -0.0000000000000000
    2       -0.0000000000000000
    3        0.0000000000000000
    4       -0.0000000000000000
    5        0.0000000000000000
    6       -0.0000000000000000
    7        0.0000000000000000
    8       -0.0000000000000000
    9       -0.0000000000000000
   10        0.0513865204736174
   11       -0.0138879736237152
   12       -0.0000000000000000
   13        0.1525669359133568
   14       -0.0412334844924670
   15       -0.0000000000000000
   16        0.2196607691602226
   17       -0.0593665586273922
   18       -0.0000000000000000
   19       -0.1964377153200394
   20        0.0530901851517354
   21        0.0000000000000000
   22       -0.3911243204880140
   23        0.1057071645451719
   24        0.0000000000000000
   25       -0.6066568235274910
   26        0.1639580127177004
   27        0.0000000000000000
   28        0.0000000000000000
   29        0.0000000000000000
   30        0.0000000000000000
Sym= A
 Ene=   0.19904590716763959
Spin= Alpha
Occup=  0.0000
    1       -0.0037391006704145
    2       -0.0158773328641306
    3       -0.0053004158475035
    4       -0.0175664671504258
    5        0.0287501235229057
    6        0.2184971347803965
    7       -0.1067293935432291
    8        0.0269760560124832
    9       -0.8526358526925023
   10       -0.0000000000000000
   11       -0.0000000000000000
   12       -0.0315933417973841
   13       -0.0000000000000000
   14       -0.0000000000000000
   15       -0.0901101330915726
   16       -0.0000000000000000
   17        0.0000000000000000
   18       -0.1740312989009500
   19        0.0000000000000000
   20       -0.0000000000000000
   21        0.1772021183150969
   22        0.0000000000000000
   23       -0.0000000000000000
   24        0.1459504972465634
   25        0.0000000000000000
   26       -0.0000000000000000
   27        0.9235043695131417
   28        0.0460655146653031
   29        0.1251427920637590
   30        1.3831329038399780
Sym= A
 Ene=   0.69297022848598955
Spin= Alpha
Occup=  0.0000
    1       -0.0001859790495591
    2       -0.0017298306589281
    3        0.0105760857572884
    4       -0.0158937487950799
    5        0.0205558702248044
    6       -0.1474467410922377
    7        0.2152245168874239
    8       -0.3269758545371849
    9        0.1197647596520202
   10        0.0000000000000000
   11        0.0000000000000000
   12        0.0055552730902271
   13        0.0000000000000000
   14        0.0000000000000000
   15        0.0107895739660659
   16        0.0000000000000000
   17        0.0000000000000000
   18        0.0817830231538002
   19        0.0000000000000000
   20        0.0000000000000000
   21       -0.1075858312129325
   22        0.0000000000000000
   23        0.0000000000000000
   24        0.1819082214021760
   25       -0.0000000000000000
   26        0.0000000000000000
   27       -0.5023575297489528
   28       -0.0321566245858565
   29       -1.4282376972094784
   30        1.1345315350073957
Sym= A
 Ene=    1.0116632820272968
Spin= Alpha
Occup=  0.0000
    1       -0.0096072933258749
    2       -0.0476496107056590
    3        0.0645530792006990
    4       -0.1538534830588202
    5        0.2131526433062130
    6       -0.5291600614503879
    7        1.2574335847430371
    8       -2.2923870350088902
    9        1.7092498837148018
   10        0.0000000000000000
   11        0.0000000000000000
   12        0.0358912378826783
   13        0.0000000000000000
   14        0.0000000000000000
   15        0.1365858298505717
   16        0.0000000000000000
   17        0.0000000000000000
   18       -0.1193391256790935
   19        0.0000000000000000
   20        0.0000000000000000
   21        0.2466860264527092
   22        0.0000000000000000
   23        0.0000000000000000
   24       -1.0977258823197036
   25        0.0000000000000000
   26        0.0000000000000000
   27        0.9301571509290275
   28        0.0004951364258221
   29       -0.0480860683987210
   30       -0.0440818303866844
Sym= A
 Ene=    1.0181894330392389
Spin= Alpha
Occup=  0.0000
    1       -0.0000000000000000
    2       -0.0000000000000000
    3        0.0000000000000000
    4       -0.0000000000000000
    5        0.0000000000000000
    6       -0.0000000000000000
    7        0.0000000000000000
    8       -0.0000000000000000
    9       -0.0000000000000000
   10        0.0000028181324192
   11        0.0549055230749968
   12       -0.0000000000000000
   13        0.0000106363958771
   14        0.2072216262011363
   15       -0.0000000000000000
   16       -0.0000083409473605
   17       -0.1624454125666826
   18       -0.0000000000000000
   19        0.0000178732206992
   20        0.3481019006097483
   21        0.0000000000000000
   22       -0.0000864670286440
   23       -1.6842891001574760
   24        0.0000000000000000
   25        0.0000779880695302
   26        1.5189604788148388
   27        0.0000000000000000
   28        0.0000000000000000
   29        0.0000000000000000
   30        0.0000000000000000
Sym= A
 Ene=    1.0181894389271078
Spin= Alpha
Occup=  0.0000
    1       -0.0000000000000000
    2        0.0000000000000000
    3       -0.0000000000000000
    4        0.0000000000000000
    5       -0.0000000000000000
    6        0.0000000000000000
    7       -0.0000000000000000
    8        0.0000000000000000
    9       -0.0000000000000000
   10        0.0549055251067660
   11       -0.0000028191821258
   12        0.0000000000000000
   13        0.2072216324803793
   14       -0.0000106402079321
   15        0.0000000000000000
   16       -0.1624454068131951
   17        0.0000083494040260
   18       -0.0000000000000000
   19        0.3481018993804196
   20       -0.0000178818209832
   21        0.0000000000000000
   22       -1.6842891199648167
   23        0.0000864740759352
   24       -0.0000000000000000
   25        1.5189604547491902
   26       -0.0000779815698718
   27        0.0000000000000000
   28       -0.0000000000000000
   29        0.0000000000000000
   30       -0.0000000000000000
Sym= A
 Ene=    1.1697563131893451
Spin= Alpha
Occup=  0.0000
    1       -0.0081521657477772
    2       -0.0408749757259175
    3        0.0599167486415998
    4       -0.1377718775334338
    5        0.1907950549060222
    6       -0.5450693853547253
    7        1.2187781068537604
    8       -2.3024275652839150
    9        2.2554216012307364
   10        0.0000000000000000
   11        0.0000000000000000
   12       -0.0437033527993145
   13        0.0000000000000000
   14        0.0000000000000000
   15       -0.1630084709102582
   16       -0.0000000000000000
   17        0.0000000000000000
   18        0.1148257182650789
   19        0.0000000000000000
   20       -0.0000000000000000
   21       -0.2640439832889010
   22        0.0000000000000000
   23       -0.0000000000000000
   24        1.4363768257354437
   25        0.0000000000000000
   26       -0.0000000000000000
   27       -1.7303292483985186
   28        0.0376295434857440
   29        0.2045642401565921
   30       -1.1913160449610189
Sym= A
 Ene=    4.9251415163741132
Spin= Alpha
Occup=  0.0000
    1        0.0000000000000000
    2        0.0000000000000000
    3       -0.0000000000000000
    4        0.0000000000000000
    5       -0.0000000000000000
    6        0.0000000000000000
    7       -0.0000000000000000
    8        0.0000000000000000
    9        0.0000000000000000
   10        0.0000181037558571
   11        0.1365261807893702
   12        0.0000000000000000
   13        0.0000288896588240
   14        0.2177981090747752
   15        0.0000000000000000
   16        0.0004075123099216
   17        3.0727355784935919
   18        0.0000000000000000
   19       -0.0006017352936583
   20       -4.5371682669167592
   21       -0.0000000000000000
   22        0.0002547834670909
   23        1.9210720289464389
   24       -0.0000000000000000
   25       -0.0001036545142807
   26       -0.7815545372533204
   27       -0.0000000000000000
   28       -0.0000000000000000
   29       -0.0000000000000000
   30       -0.0000000000000000
Sym= A
 Ene=    4.9251415170592558
Spin= Alpha
Occup=  0.0000
    1       -0.0000000000000000
    2       -0.0000000000000000
    3        0.0000000000000000
    4       -0.0000000000000000
    5        0.0000000000000000
    6        0.0000000000000000
    7        0.0000000000000000
    8       -0.0000000000000000
    9       -0.0000000000000000
   10        0.1365261811721715
   11       -0.0000181067230817
   12       -0.0000000000000000
   13        0.2177981103761380
   14       -0.0000288851301146
   15       -0.0000000000000000
   16        3.0727355826991536
   17       -0.0004075250197243
   18       -0.0000000000000000
   19       -4.5371682698199933
   20        0.0006017457848713
   21        0.0000000000000000
   22        1.9210720246731878
   23       -0.0002547840930931
   24        0.0000000000000000
   25       -0.7815545368407384
   26        0.0001036551333646
   27        0.0000000000000000
   28        0.0000000000000000
   29        0.0000000000000000
   30        0.0000000000000000
Sym= A
 Ene=    4.9779132423422272
Spin= Alpha
Occup=  0.0000
    1       -0.0023828711729260
    2       -0.0081808497179588
    3       -0.0272748294085789
    4        0.0213293894803845
    5       -0.0220108486604096
    6        0.5700133893829341
    7       -0.6082492656296616
    8       -0.0252380193120596
    9        0.2517050655294071
   10        0.0000000000000000
   11       -0.0000000000000000
   12        0.1342980552456655
   13        0.0000000000000000
   14       -0.0000000000000000
   15        0.2100663419288213
   16        0.0000000000000000
   17       -0.0000000000000000
   18        3.0862027295877472
   19       -0.0000000000000000
   20        0.0000000000000000
   21       -4.5659965502278421
   22       -0.0000000000000000
   23        0.0000000000000000
   24        2.0505493695494819
   25       -0.0000000000000000
   26        0.0000000000000000
   27       -0.9839782487542011
   28       -0.2251479029895073
   29        0.3581295854190212
   30       -0.4365983107708862
Sym= A
 Ene=    5.4178081464781487
Spin= Alpha
Occup=  0.0000
    1        0.0051139844299138
    2        0.0175741185907576
    3        0.0589728710983391
    4       -0.0465858357434157
    5        0.0523985656492652
    6       -1.3869871969022982
    7        1.5689035402750164
    8       -0.3428414186754160
    9        0.0619023162026231
   10        0.0000000000000000
   11        0.0000000000000000
   12        0.0256385243658604
   13        0.0000000000000000
   14        0.0000000000000000
   15        0.0631770422745467
   16        0.0000000000000000
   17        0.0000000000000000
   18        0.3846231273668259
   19        0.0000000000000000
   20       -0.0000000000000000
   21       -0.6040766805142339
   22        0.0000000000000000
   23       -0.0000000000000000
   24        0.1424357512038959
   25        0.0000000000000000
   26       -0.0000000000000000
   27       -0.1081673529245101
   28        1.3104470649224693
   29       -1.2570887127632684
   30        0.4892014575354127
Sym= A
 Ene=    5.8708171248532794
Spin= Alpha
Occup=  0.0000
    1        0.0280155263491827
    2        0.0860023134874310
    3        0.4447211397134679
    4       -0.4239127969909109
    5        0.5084082949000598
    6       -9.6459091671578516
    7       11.3628206567111345
    8       -3.6428263770665263
    9        1.5771178392553800
   10        0.0000000000000000
   11        0.0000000000000000
   12        0.0069097960251437
   13        0.0000000000000000
   14        0.0000000000000000
   15        0.0100576023348942
   16        0.0000000000000000
   17       -0.0000000000000000
   18        0.2028997259422370
   19       -0.0000000000000000
   20        0.0000000000000000
   21       -0.3202439345943802
   22       -0.0000000000000000
   23        0.0000000000000000
   24        0.2699553725828361
   25       -0.0000000000000000
   26        0.0000000000000000
   27       -0.2829976873759691
   28       -0.2660743548268853
   29        0.3485686663520438
   30       -0.4508074724672768
Sym= A
 Ene=    15.622916666319112
Spin= Alpha
Occup=  0.0000
    1       -0.0000000000000000
    2       -0.0000000000000000
    3       -0.0000000000000000
    4        0.0000000000000000
    5       -0.0000000000000000
    6        0.0000000000000000
    7       -0.0000000000000000
    8        0.0000000000000000
    9       -0.0000000000000000
   10        0.1900288308248616
   11       -0.0000041762729561
   12       -0.0000000000000000
   13        1.4483193583416922
   14       -0.0000318290412393
   15       -0.0000000000000000
   16       -7.2702381971503947
   17        0.0001597689187828
   18       -0.0000000000000000
   19        6.6602274480954335
   20       -0.0001463631368795
   21        0.0000000000000000
   22       -1.1511290215394370
   23        0.0000252980784830
   24       -0.0000000000000000
   25        0.3970428674404674
   26       -0.0000087217462174
   27        0.0000000000000000
   28       -0.0000000000000000
   29        0.0000000000000000
   30       -0.0000000000000000
Sym= A
 Ene=    15.622916667962986
Spin= Alpha
Occup=  0.0000
    1        0.0000000000000000
    2        0.0000000000000000
    3       -0.0000000000000000
    4        0.0000000000000000
    5       -0.0000000000000000
    6       -0.0000000000000000
    7       -0.0000000000000000
    8        0.0000000000000000
    9        0.0000000000000000
   10       -0.0000041760279952
   11       -0.1900288307822672
   12        0.0000000000000000
   13       -0.0000318293947946
   14       -1.4483193574555162
   15        0.0000000000000000
   16        0.0001597714275630
   17        7.2702381982724376
   18        0.0000000000000000
   19       -0.0001463664411838
   20       -6.6602274496421741
   21       -0.0000000000000000
   22        0.0000253015078580
   23        1.1511290219235530
   24       -0.0000000000000000
   25       -0.0000087244517028
   26       -0.3970428672989541
   27       -0.0000000000000000
   28       -0.0000000000000000
   29       -0.0000000000000000
   30       -0.0000000000000000
Sym= A
 Ene=    15.684482700937600
Spin= Alpha
Occup=  0.0000
    1        0.0004448652251025
    2        0.0024767100280815
    3       -0.0051340341766804
    4        0.0104003165009310
    5       -0.0135598721380537
    6       -0.1059331840695238
    7        0.1686721628814607
    8       -0.1434251771246569
    9        0.1629497166316028
   10        0.0000000000000000
   11        0.0000000000000000
   12       -0.1901142112482142
   13        0.0000000000000000
   14        0.0000000000000000
   15       -1.4526324386670129
   16        0.0000000000000000
   17        0.0000000000000000
   18        7.3475055582350413
   19        0.0000000000000000
   20        0.0000000000000000
   21       -6.7655399141085022
   22        0.0000000000000000
   23        0.0000000000000000
   24        1.2362205314792880
   25       -0.0000000000000000
   26        0.0000000000000000
   27       -0.5104454925620089
   28        0.0180385824193163
   29        0.0476313638933256
   30       -0.1667927767359137
Sym= A
 Ene=    22.168154826316279
Spin= Alpha
Occup=  0.0000
    1        0.0463793191420983
    2        0.3589507371806007
    3       -1.7830293634536212
    4        2.9233792800528402
    5       -4.8324248440227198
    6       14.5276058170084710
    7      -12.5733833508050203
    8        2.0317879468173925
    9       -0.7502382180279779
   10       -0.0000000000000000
   11       -0.0000000000000000
   12        0.0021466890404016
   13       -0.0000000000000000
   14       -0.0000000000000000
   15        0.0147674317861165
   16       -0.0000000000000000
   17       -0.0000000000000000
   18       -0.1232510250902478
   19       -0.0000000000000000
   20        0.0000000000000000
   21        0.1426964399901238
   22       -0.0000000000000000
   23        0.0000000000000000
   24       -0.0880188825001622
   25       -0.0000000000000000
   26        0.0000000000000000
   27        0.1135801754422191
   28        0.0147415159564434
   29       -0.0502873655908780
   30        0.1566398166726198
Sym= A
 Ene=    62.296945895895000
Spin= Alpha
Occup=  0.0000
    1        0.0000000000000000
    2        0.0000000000000000
    3        0.0000000000000000
    4        0.0000000000000000
    5       -0.0000000000000000
    6       -0.0000000000000000
    7        0.0000000000000000
    8        0.0000000000000000
    9        0.0000000000000000
   10       -1.2777991433870373
   11       -0.0000300049689178
   12        0.0000000000000000
   13        1.8696012168966358
   14        0.0000439005895219
   15        0.0000000000000000
   16       -3.8402377202985254
   17       -0.0000901799342065
   18        0.0000000000000000
   19        3.1174450067006805
   20        0.0000732112087337
   21       -0.0000000000000000
   22       -0.4605772204825952