[Molden Format]
[GTO]
    1 0
 s   6 1.00
     413.8010000    1.0000000000
      62.2446000    0.0000000000
      13.4340000    0.0000000000
       9.7775900    0.0000000000
       2.0861700    0.0000000000
       0.4823830    0.0000000000
 s   6 1.00
     413.8010000    0.0000000000
      62.2446000    1.0000000000
      13.4340000    0.0000000000
       9.7775900    0.0000000000
       2.0861700    0.0000000000
       0.4823830    0.0000000000
 s   6 1.00
     413.8010000    0.0000000000
      62.2446000    0.0000000000
      13.4340000    1.0000000000
       9.7775900    0.0000000000
       2.0861700    0.0000000000
       0.4823830    0.0000000000
 s   6 1.00
     413.8010000    0.0000000000
      62.2446000    0.0000000000
      13.4340000    0.0000000000
       9.7775900    1.0000000000
       2.0861700    0.0000000000
       0.4823830    0.0000000000
 s   6 1.00
     413.8010000    0.0000000000
      62.2446000    0.0000000000
      13.4340000    0.0000000000
       9.7775900    0.0000000000
       2.0861700    1.0000000000
       0.4823830    0.0000000000
 s   6 1.00
     413.8010000    0.0000000000
      62.2446000    0.0000000000
      13.4340000    0.0000000000
       9.7775900    0.0000000000
       2.0861700    0.0000000000
       0.4823830    1.0000000000
 p   3 1.00
       9.7775900    1.0000000000
       2.0861700    0.0000000000
       0.4823830    0.0000000000
 p   3 1.00
       9.7775900    0.0000000000
       2.0861700    1.0000000000
       0.4823830    0.0000000000
 p   3 1.00
       9.7775900    0.0000000000
       2.0861700    0.0000000000
       0.4823830    1.0000000000

    2 0
 s   3 1.00
       5.4471780    1.0000000000
       0.8245470    0.0000000000
       0.1831920    0.0000000000
 s   3 1.00
       5.4471780    0.0000000000
       0.8245470    1.0000000000
       0.1831920    0.0000000000
 s   3 1.00
       5.4471780    0.0000000000
       0.8245470    0.0000000000
       0.1831920    1.0000000000

*** Dalton interface to Molden, wave function type :
HF          24Aug22   21:27:18
[Atoms] AU
F          1     9         0.0000000000         0.0000000000         0.087294744
H          2     1         0.0000000000         0.0000000000        -1.645584019
[5D7F]
[9G]
[MO]
Sym= A
 Ene=   -26.121118956180339
Spin= Alpha
Occup=  2.0000
    1       -0.0576342616059361
    2       -0.3448125803031338
    3       -0.6602168067695922
    4       -0.0020315801471146
    5       -0.1074950562371290
    6        0.0266379015388086
    7        0.0000000000000000
    8       -0.0000000000000000
    9        0.0011780359236514
   10        0.0000000000000000
   11       -0.0000000000000001
   12        0.0015732523720975
   13        0.0000000000000000
   14       -0.0000000000000002
   15       -0.0040047129078259
   16       -0.0009687014496282
   17       -0.0013294733400842
   18       -0.0063671206603522
Sym= A
 Ene=   -1.5553620689583563
Spin= Alpha
Occup=  2.0000
    1       -0.0125895881978544
    2       -0.0878754360847489
    3       -0.1576215724075340
    4       -0.1134816093896137
    5        0.2915663962348606
    6        0.7666930660933596
    7        0.0000000000000000
    8       -0.0000000000000000
    9       -0.0133934795977977
   10        0.0000000000000001
   11       -0.0000000000000001
   12       -0.0552566339720531
   13        0.0000000000000001
   14       -0.0000000000000001
   15       -0.0726184480548763
   16        0.0228154976449720
   17        0.0900469114656933
   18        0.0224374858266095
Sym= A
 Ene=  -0.70704448632674177
Spin= Alpha
Occup=  2.0000
    1       -0.0036037747043673
    2       -0.0247705557398564
    3       -0.0537084704813884
    4       -0.0218507994723915
    5        0.0771707631658679
    6        0.3198181475182861
    7        0.0000000000000006
    8        0.0000000000000020
    9        0.1080429695548208
   10        0.0000000000000017
   11        0.0000000000000059
   12        0.3751376241432147
   13        0.0000000000000023
   14        0.0000000000000080
   15        0.4586358200133838
   16       -0.0398476527321733
   17       -0.2409679329113558
   18       -0.1620773995448030
Sym= A
 Ene=  -0.59979153696881471
Spin= Alpha
Occup=  2.0000
    1        0.0000000000000000
    2        0.0000000000000003
    3        0.0000000000000004
    4        0.0000000000000005
    5       -0.0000000000000013
    6       -0.0000000000000042
    7       -0.0034894563466203
    8        0.1350928862099058
    9       -0.0000000000000016
   10       -0.0118546999027661
   11        0.4589490717787708
   12       -0.0000000000000050
   13       -0.0159693030356101
   14        0.6182510179681654
   15       -0.0000000000000061
   16        0.0000000000000004
   17        0.0000000000000014
   18        0.0000000000000041
Sym= A
 Ene=  -0.59979153696881338
Spin= Alpha
Occup=  2.0000
    1        0.0000000000000000
    2        0.0000000000000001
    3        0.0000000000000002
    4        0.0000000000000002
    5       -0.0000000000000005
    6       -0.0000000000000014
    7        0.1350928862099056
    8        0.0034894563466203
    9       -0.0000000000000005
   10        0.4589490717787699
   11        0.0118546999027662
   12       -0.0000000000000016
   13        0.6182510179681664
   14        0.0159693030356101
   15       -0.0000000000000020
   16        0.0000000000000001
   17        0.0000000000000004
   18        0.0000000000000012
Sym= A
 Ene=   0.26762567536969911
Spin= Alpha
Occup=  0.0000
    1        0.0036005833892200
    2        0.0235353897843452
    3        0.0724371875398447
    4       -0.0060772312832397
    5       -0.0271840448904537
    6       -0.6931534886445895
    7       -0.0000000000000000
    8       -0.0000000000000001
    9        0.0634160903192528
   10       -0.0000000000000001
   11       -0.0000000000000004
   12        0.2018209320822354
   13       -0.0000000000000001
   14       -0.0000000000000005
   15        0.4718137673043787
   16        0.0226810009167736
   17        0.0359413961482677
   18        1.2602846176742684
Sym= A
 Ene=    1.0807205284541257
Spin= Alpha
Occup=  0.0000
    1        0.0015666998886543
    2        0.0105646881590049
    3        0.0276326039692360
    4        0.0037063302637351
    5       -0.0170367008893876
    6       -0.0945531119206339
    7        0.0000000000000001
    8        0.0000000000000002
    9        0.0599074561758299
   10        0.0000000000000002
   11        0.0000000000000006
   12        0.1989632744550284
   13        0.0000000000000002
   14        0.0000000000000008
   15        0.4705117909060996
   16        0.0380143453999040
   17        1.4509981140303470
   18       -0.8532025163292420
Sym= A
 Ene=    2.1505095510964600
Spin= Alpha
Occup=  0.0000
    1        0.0000000000000000
    2        0.0000000000000000
    3        0.0000000000000000
    4        0.0000000000000000
    5       -0.0000000000000000
    6       -0.0000000000000000
    7       -0.0000017025415540
    8        0.1556102992509239
    9       -0.0000000000000000
   10       -0.0000102381170427
   11        0.9392886797252089
   12       -0.0000000000000001
   13        0.0000107515732735
   14       -0.9946587438060642
   15       -0.0000000000000001
   16        0.0000000000000000
   17        0.0000000000000000
   18        0.0000000000000000
Sym= A
 Ene=    2.1505095510964654
Spin= Alpha
Occup=  0.0000
    1        0.0000000000000000
    2        0.0000000000000000
    3        0.0000000000000000
    4        0.0000000000000000
    5       -0.0000000000000000
    6       -0.0000000000000000
    7        0.1556102992509242
    8        0.0000017025415540
    9       -0.0000000000000000
   10        0.9392886797252094
   11        0.0000102381170427
   12       -0.0000000000000000
   13       -0.9946587438060637
   14       -0.0000107515732735
   15       -0.0000000000000000
   16        0.0000000000000000
   17        0.0000000000000000
   18        0.0000000000000000
Sym= A
 Ene=    2.2942592567886906
Spin= Alpha
Occup=  0.0000
    1       -0.0027659398830243
    2       -0.0223642264918473
    3        0.0052235392126599
    4       -0.0909800165565399
    5        0.1913603196386799
    6        0.0871078729695134
    7        0.0000000000000000
    8        0.0000000000000000
    9        0.1486989921917813
   10        0.0000000000000000
   11        0.0000000000000001
   12        0.9452427530451295
   13        0.0000000000000000
   14        0.0000000000000001
   15       -1.2348739089939005
   16        0.0223638988946699
   17       -0.4114814816706591
   18       -0.1475081650421986
Sym= A
 Ene=    3.2818437133283616
Spin= Alpha
Occup=  0.0000
    1        0.0163087933240076
    2        0.1440904838707235
    3       -0.2279249749045474
    4        0.8543684354326943
    5       -1.8782373727281461
    6        1.5810202511182656
    7       -0.0000000000000000
    8       -0.0000000000000000
    9        0.0247519534788147
   10       -0.0000000000000000
   11       -0.0000000000000001
   12        0.1647803155573470
   13       -0.0000000000000000
   14       -0.0000000000000001
   15       -0.4216280512735934
   16        0.0518274684875229
   17       -0.2881923488328671
   18       -0.3812187827047211
Sym= A
 Ene=    8.3717915445225799
Spin= Alpha
Occup=  0.0000
    1       -0.0015355284691261
    2       -0.0099913723750768
    3       -0.0422649472437839
    4        0.0106583397396926
    5        0.0962593855616670
    6       -0.0032866161287014
    7        0.0000000000000000
    8        0.0000000000000000
    9       -0.0274200586296099
   10        0.0000000000000000
   11        0.0000000000000000
   12       -0.0580822619551619
   13        0.0000000000000000
   14        0.0000000000000000
   15       -0.1271768807259301
   16        1.2611076136557740
   17       -1.1050669254807368
   18        0.3739694086430069
Sym= A
 Ene=    14.797057532285967
Spin= Alpha
Occup=  0.0000
    1        0.0000000000000000
    2        0.0000000000000000
    3        0.0000000000000000
    4        0.0000000000000000
    5       -0.0000000000000000
    6       -0.0000000000000001
    7       -0.0000074718543901
    8        1.1689458492751681
    9       -0.0000000000000000
   10        0.0000059473506295
   11       -0.9308637853453757
   12       -0.0000000000000001
   13       -0.0000020857935498
   14        0.3262739451042560
   15       -0.0000000000000001
   16        0.0000000000000000
   17        0.0000000000000000
   18        0.0000000000000001
Sym= A
 Ene=    14.797057532285974
Spin= Alpha
Occup=  0.0000
    1        0.0000000000000000
    2        0.0000000000000000
    3        0.0000000000000000
    4        0.0000000000000000
    5       -0.0000000000000000
    6       -0.0000000000000000
    7        1.1689458492751683
    8        0.0000074718543901
    9       -0.0000000000000000
   10       -0.9308637853453759
   11       -0.0000059473506295
   12       -0.0000000000000000
   13        0.3262739451042562
   14        0.0000020857935498
   15       -0.0000000000000000
   16        0.0000000000000000
   17        0.0000000000000000
   18        0.0000000000000000
Sym= A
 Ene=    14.872021369710948
Spin= Alpha
Occup=  0.0000
    1       -0.0005520392349510
    2       -0.0024032864861603
    3       -0.0330825693836396
    4        0.0266410436331606
    5        0.0506748969236757
    6       -0.1079043727394387
    7        0.0000000000000000
    8        0.0000000000000000
    9        1.1721386587449911
   10        0.0000000000000000
   11        0.0000000000000001
   12       -0.9559933910311487
   13        0.0000000000000000
   14        0.0000000000000001
   15        0.4004414548259423
   16        0.0548809649151922
   17        0.0070975752309029
   18        0.1086861670791785
Sym= A
 Ene=    23.000118004311194
Spin= Alpha
Occup=  0.0000
    1        0.0497109373330403
    2        0.1354074545410379
    3        5.8722322335990285
    4       -7.1204600698255618
    5        1.6751656351990751
    6       -0.5994558966544815
    7        0.0000000000000000
    8        0.0000000000000000
    9        0.0177386930200346
   10        0.0000000000000000
   11        0.0000000000000000
   12       -0.0415002471347548
   13        0.0000000000000000
   14        0.0000000000000000
   15        0.0899316352253825
   16        0.0386707693157693
   17        0.0096655984066269
   18        0.1430157746491966
Sym= A
 Ene=    96.075677959424183
Spin= Alpha
Occup=  0.0000
    1        0.0475645730836359
    2        1.6924047218069531
    3       -7.9366662719195258
    4        7.1426956005954167
    5       -0.8288647115040935
    6        0.2660923249523133
    7       -0.0000000000000000
    8        0.0000000000000000
    9       -0.0048785882961696
   10       -0.0000000000000000
   11        0.0000000000000000
   12        0.0153788362830472
   13       -0.0000000000000000
   14        0.0000000000000000
   15       -0.0389380818049509
   16       -0.0120277695168163
   17       -0.0087320559084461
   18       -0.0618479871593984
Sym= A
 Ene=    621.82464312667787
Spin= Alpha
Occup=  0.0000
    1        1.2869623490624971
    2       -1.3871280993390658
    3        2.9722300189274149
    4       -2.5225320777109856
    5        0.2760527793963276
    6       -0.0908082265613855
    7        0.0000000000000000
    8        0.0000000000000000
    9        0.0014850728554002
   10        0.0000000000000000
   11        0.0000000000000000
   12       -0.0050914060308669
   13        0.0000000000000000
   14        0.0000000000000000
   15        0.0134407604700961
   16        0.0038473046184281
   17        0.0034456827981084
   18        0.0212135714013994
