[Molden Format]
[GTO]
    1 0
 s   6 1.00
     413.8010000    1.0000000000
      62.2446000    0.0000000000
      13.4340000    0.0000000000
       9.7775900    0.0000000000
       2.0861700    0.0000000000
       0.4823830    0.0000000000
 s   6 1.00
     413.8010000    0.0000000000
      62.2446000    1.0000000000
      13.4340000    0.0000000000
       9.7775900    0.0000000000
       2.0861700    0.0000000000
       0.4823830    0.0000000000
 s   6 1.00
     413.8010000    0.0000000000
      62.2446000    0.0000000000
      13.4340000    1.0000000000
       9.7775900    0.0000000000
       2.0861700    0.0000000000
       0.4823830    0.0000000000
 s   6 1.00
     413.8010000    0.0000000000
      62.2446000    0.0000000000
      13.4340000    0.0000000000
       9.7775900    1.0000000000
       2.0861700    0.0000000000
       0.4823830    0.0000000000
 s   6 1.00
     413.8010000    0.0000000000
      62.2446000    0.0000000000
      13.4340000    0.0000000000
       9.7775900    0.0000000000
       2.0861700    1.0000000000
       0.4823830    0.0000000000
 s   6 1.00
     413.8010000    0.0000000000
      62.2446000    0.0000000000
      13.4340000    0.0000000000
       9.7775900    0.0000000000
       2.0861700    0.0000000000
       0.4823830    1.0000000000
 p   3 1.00
       9.7775900    1.0000000000
       2.0861700    0.0000000000
       0.4823830    0.0000000000
 p   3 1.00
       9.7775900    0.0000000000
       2.0861700    1.0000000000
       0.4823830    0.0000000000
 p   3 1.00
       9.7775900    0.0000000000
       2.0861700    0.0000000000
       0.4823830    1.0000000000

    2 0
 s   3 1.00
       5.4471780    1.0000000000
       0.8245470    0.0000000000
       0.1831920    0.0000000000
 s   3 1.00
       5.4471780    0.0000000000
       0.8245470    1.0000000000
       0.1831920    0.0000000000
 s   3 1.00
       5.4471780    0.0000000000
       0.8245470    0.0000000000
       0.1831920    1.0000000000

[SCFCONV]
scf-first  1  THROUGH   9
      -99.0827769100
      -99.2305734399
      -99.2476041462
      -99.2585839860
      -99.2590193919
      -99.2590257284
      -99.2590257430
      -99.2590257434
      -99.2590257433
[TITLE]
*** Dalton interface to Molden, wave function type : HF            24Nov22   13:
[Atoms] AU
F          1     9         0.0000000000         0.0000000000         0.249373892
H          2     1         0.0000000000         0.0000000000        -3.194113845
[5D7F]
[9G]
[MO]
Sym= A
 Ene=   -26.134284386622358
Spin= Alpha
Occup=  2.0000
           1  -5.7633370313146061E-002
           2 -0.34499766607134669
           3 -0.65799610218948623
           4  -5.2229417683055165E-003
           5 -0.10429655933347760
           6   2.1329087766053374E-002
           7  -5.8888943688883045E-018
           8  -7.1059090048481265E-017
           9   5.2057038087117231E-004
          10  -1.7245013435245615E-017
          11  -2.0808913962804203E-016
          12   2.6295105160242040E-004
          13  -2.3248685670768297E-017
          14  -2.8053321134707817E-016
          15  -6.2783435967788033E-004
          16  -2.3456468009611613E-004
          17   1.3615285010427031E-003
          18  -2.7292533135833000E-003
Sym= A
 Ene=   -1.4490877212999118
Spin= Alpha
Occup=  2.0000
           1  -1.3212921737387421E-002
           2  -9.2232011271939168E-002
           3 -0.16665122532759341
           4 -0.11849036833101735
           5  0.31264618935022359
           6  0.81271265973928997
           7  -3.5642484248016358E-017
           8   3.7351149731768720E-016
           9   1.0150608770428475E-004
          10  -1.0437530056063920E-016
          11   1.0937894935748672E-015
          12  -6.8583130763722616E-004
          13  -1.4071247689298790E-016
          14   1.4745809402582666E-015
          15  -6.8363081281342638E-003
          16   1.8824758856285900E-003
          17   1.5034042642666738E-002
          18   2.7322842306152725E-002
Sym= A
 Ene=  -0.57487270265837553
Spin= Alpha
Occup=  2.0000
           1   7.8740542462772020E-018
           2   6.6909259534153892E-017
           3   9.0524065978440498E-017
           4   1.0154020307490001E-016
           5  -2.1519078609865519E-016
           6  -6.1357814105241198E-016
           7 -0.13693488968510953
           8   9.8859076084180462E-003
           9  -6.4776961331083674E-016
          10 -0.46609144926106444
          11   3.3649160537298495E-002
          12  -1.9838116160273398E-015
          13 -0.60774387558444443
          14   4.3875552871675966E-002
          15  -2.5052642320363297E-015
          16   1.3205026602977816E-016
          17   5.1884629812396316E-016
          18   1.2986937265553903E-015
Sym= A
 Ene=  -0.57487270265837398
Spin= Alpha
Occup=  2.0000
           1  -2.8595580801994330E-017
           2  -2.7177521305100719E-016
           3  -4.7416654141394926E-016
           4  -5.0865707355302242E-016
           5   1.4726400152730175E-015
           6   4.4159046532993995E-015
           7  -9.8859076084180150E-003
           8 -0.13693488968510989
           9   5.4523266390216143E-015
          10  -3.3649160537298398E-002
          11 -0.46609144926106533
          12   1.6702766127606280E-014
          13  -4.3875552871676070E-002
          14 -0.60774387558444332
          15   2.1083315459528766E-014
          16  -1.1331874137235732E-015
          17  -4.4644321977658720E-015
          18  -1.1121663042684148E-014
Sym= A
 Ene=  -0.47940703470107188
Spin= Alpha
Occup=  2.0000
           1  -1.0724062000911395E-003
           2  -7.5748083036883546E-003
           3  -1.3207114870363469E-002
           4  -1.0897412057719194E-002
           5   3.0778805565464265E-002
           6   8.4876804024006422E-002
           7  -2.8061922454814447E-016
           8   6.1300610231477616E-015
           9   9.8936024351618204E-002
          10  -8.2176415374122669E-016
          11   1.7951244848532624E-014
          12  0.33451711111502874
          13  -1.1078528049614453E-015
          14   2.4200784212180490E-014
          15  0.47837615739835199
          16  -3.0132918428626268E-002
          17 -0.15783109586188296
          18 -0.43221476058403435
Sym= A
 Ene=   -2.5956984582095510E-002
Spin= Alpha
Occup=  0.0000
           1   1.2266990294825452E-003
           2   8.3699884890935453E-003
           3   1.8851120757290400E-002
           4   6.4437731049156906E-003
           5  -2.3381122147935508E-002
           6 -0.12527313134297463
           7  -6.4851724493886263E-017
           8   1.3341001877794162E-015
           9   8.4579279733510052E-002
          10  -1.8991151651562797E-016
          11   3.9067733637346446E-015
          12  0.27862204288536341
          13  -2.5602723763072963E-016
          14   5.2668759152580672E-015
          15  0.45219950555564459
          16   4.6185052361482577E-002
          17  0.21359931974081384
          18  0.67931094328616748
Sym= A
 Ene=   0.96442455779304570
Spin= Alpha
Occup=  0.0000
           1  -1.1650333640856620E-003
           2  -8.1755093527385806E-003
           3  -1.5472584055639274E-002
           4  -1.0634460604434803E-002
           5   3.2683607719675260E-002
           6  0.13512745522943795
           7   2.2331460154590552E-018
           8  -5.7447767577443852E-017
           9  -7.4206906776464777E-003
          10   6.5395353740610614E-018
          11  -1.6822980030543781E-016
          12  -1.7838341491985548E-003
          13   8.8162066625992071E-018
          14  -2.2679725721545122E-016
          15 -0.12995219521583576
          16   3.6737908926901028E-002
          17   1.3142757430536693
          18  -1.1756891337628115
Sym= A
 Ene=    2.1740253918229122
Spin= Alpha
Occup=  0.0000
           1   4.2767126062619507E-020
           2   4.0562772555462132E-019
           3   7.0493706131623478E-019
           4   7.5668063646380911E-019
           5  -2.1824044331822443E-018
           6  -6.5408862357858348E-018
           7   4.8465317411792716E-005
           8  0.15552526678645812
           9  -8.0644740231241995E-018
          10   2.9104249792683988E-004
          11  0.93400961547986527
          12  -2.4704809518654640E-017
          13  -3.1157694546637076E-004
          14  -1.0000673134563896
          15  -3.1184137105820735E-017
          16   1.6758127631142160E-018
          17   6.6020730047905086E-018
          18   1.6447540356141154E-017
Sym= A
 Ene=    2.1740253918229162
Spin= Alpha
Occup=  0.0000
           1  -8.5346245943754350E-021
           2  -6.9489109303334069E-020
           3  -8.2795132676945777E-020
           4  -9.5316667138906525E-020
           5   1.6041465663162075E-019
           6   4.3453459522925690E-019
           7  0.15552526678645817
           8  -4.8465317411788894E-005
           9   3.7546710069719444E-019
          10  0.93400961547986594
          11  -2.9104249792682828E-004
          12   1.1493646514365246E-018
          13  -1.0000673134563889
          14   3.1157694546638654E-004
          15   1.4525162813708176E-018
          16  -7.4252695075202590E-020
          17  -2.9049023183444980E-019
          18  -7.3269336330280961E-019
Sym= A
 Ene=    2.2424894243707456
Spin= Alpha
Occup=  0.0000
           1  -6.2898613417175801E-004
           2  -5.4071322333383636E-003
           3   5.9526211399041238E-003
           4  -2.7997003513997913E-002
           5   5.6075160646226717E-002
           6  -1.1133598817025817E-002
           7  -1.2316625581052497E-017
           8   2.6751345660502759E-016
           9  0.15830024790154182
          10  -3.6067954409960342E-017
          11   7.8338527816615651E-016
          12  0.95661044878661261
          13  -4.8624637957716780E-017
          14   1.0561127226476288E-015
          15  -1.0138683958326704
          16  -1.1568954879099888E-002
          17   4.6686063718125240E-002
          18 -0.19390673673606598
Sym= A
 Ene=    3.0443637543041313
Spin= Alpha
Occup=  0.0000
           1  -1.6548251717993689E-002
           2 -0.14513016251298247
           3  0.21381683720620320
           4 -0.83592977431614202
           5   1.8015172724594708
           6  -1.2633374131391291
           7   1.1092940705060980E-018
           8  -3.5113317412642295E-017
           9  -7.0754321155995833E-003
          10   3.2484520779573728E-018
          11  -1.0282569063151919E-016
          12  -4.3997867107030929E-002
          13   4.3793669144173947E-018
          14  -1.3862338636895831E-016
          15   7.2921543258507693E-002
          16  -3.5776153195775000E-003
          17 -0.10532381073396717
          18  0.21109971445610806
Sym= A
 Ene=    8.1759216765903808
Spin= Alpha
Occup=  0.0000
           1   2.3087466753029376E-004
           2   1.8097986457953773E-003
           3   8.5938956333602746E-004
           4   7.1306620216245375E-003
           5  -3.5955143884049350E-002
           6   7.0859260957839662E-002
           7  -1.7156860288658250E-018
           8   3.9204153459284294E-017
           9  -6.0631448572825881E-003
          10  -5.0242077315510436E-018
          11   1.1480527765866961E-016
          12  -1.2532614062692674E-003
          13  -6.7733334470319975E-018
          14   1.5477354214039988E-016
          15  -2.2356179016741001E-002
          16  -1.2492349193270329
          17   1.0195502703773578
          18 -0.40744158060627661
Sym= A
 Ene=    14.797463769726662
Spin= Alpha
Occup=  0.0000
           1  -8.7787421774765834E-020
           2  -7.1457608912238459E-019
           3  -8.5066794669867300E-019
           4  -9.7950147153591879E-019
           5   1.6454417005928457E-018
           6   4.4551129583820561E-018
           7   1.1687062168862341
           8  -2.2599049349381547E-005
           9   3.8414863062295162E-018
          10 -0.93209325893136830
          11   1.8027535587415281E-005
          12   1.1759341509541101E-017
          13  0.32692144751856611
          14  -6.3176124684455878E-006
          15   1.4861058603739074E-017
          16  -7.5942608929910724E-019
          17  -2.9708618028621693E-018
          18  -7.4939820793009188E-018
Sym= A
 Ene=    14.797463769726670
Spin= Alpha
Occup=  0.0000
           1   4.4064576163060966E-019
           2   4.1792966569293201E-018
           3   7.2630386288077334E-018
           4   7.7961794242014141E-018
           5  -2.2485216806695555E-017
           6  -6.7390309035272863E-017
           7   2.2599049349381510E-005
           8   1.1687062168862337
           9  -8.3087197573234010E-017
          10  -1.8027535587415518E-005
          11 -0.93209325893136818
          12  -2.5453034641708528E-016
          13   6.3176124684459402E-006
          14  0.32692144751856606
          15  -3.2128599715428972E-016
          16   1.7265662279535989E-017
          17   6.8020219197026488E-017
          18   1.6945669902919634E-016
Sym= A
 Ene=    14.800628674767141
Spin= Alpha
Occup=  0.0000
           1  -4.2371682755669917E-005
           2  -1.8754055722472354E-004
           3  -1.0459198405101591E-003
           4  -9.0334953204486976E-004
           5   9.8956776314216600E-003
           6  -1.6217766723825869E-002
           7  -3.5274342176094059E-018
           8   7.6300665783826536E-017
           9   1.1699864114537561
          10  -1.0329723486974144E-017
          11   2.2343854790668822E-016
          12 -0.93623155406387815
          13  -1.3925909383392792E-017
          14   3.0122635662311004E-016
          15  0.34209280191820995
          16  -6.2661786705266818E-003
          17  -8.1583100421823741E-003
          18   5.4867658307752060E-002
Sym= A
 Ene=    22.784420953418493
Spin= Alpha
Occup=  0.0000
           1   4.9710275951589881E-002
           2  0.13545756542187068
           3   5.8390985707741567
           4  -7.0646193278276401
           5   1.6050389632456932
           6 -0.47868878916958318
           7  -2.3881166776640406E-019
           8  -6.4482614078869105E-019
           9   2.3095384120858926E-003
          10  -6.9933508077170889E-019
          11  -1.8883061513315377E-018
          12  -6.8771556035552416E-003
          13  -9.4280132239149120E-019
          14  -2.5457003166379909E-018
          15   1.4787224484833968E-002
          16   7.6828047282019299E-003
          17  -3.2065567340886295E-002
          18   5.9002802586135786E-002
Sym= A
 Ene=    95.883113133220363
Spin= Alpha
Occup=  0.0000
           1   4.7560275129739669E-002
           2   1.6906468456577266
           3  -7.8909097455788908
           4   7.0846476698452383
           5 -0.79333982608774323
           6  0.21198129581941619
           7   2.5933773843300164E-019
           8  -4.8241907582578562E-019
           9  -9.3200569844121488E-004
          10   7.5944353954979419E-019
          11  -1.4127139871929579E-018
          12   2.8577183062447691E-003
          13   1.0238359165091553E-018
          14  -1.9045356824013939E-018
          15  -6.3674236465809031E-003
          16  -2.6943558646155006E-003
          17   1.3619134656921519E-002
          18  -2.5868801882665927E-002
Sym= A
 Ene=    621.67191196964131
Spin= Alpha
Occup=  0.0000
           1  -1.2868006598916968
           2   1.3855110516380991
           3  -2.9545195944126088
           4   2.5015182890040832
           5 -0.26411926994335289
           6   7.2252705199704670E-002
           7   9.2690723439983495E-020
           8  -6.4611031209179014E-019
           9  -2.8105128485453090E-004
          10   2.7143512362695028E-019
          11  -1.8920667131570836E-018
          12   9.3497155473824432E-004
          13   3.6593244145067451E-019
          14  -2.5507700789839000E-018
          15  -2.1732921508393231E-003
          16  -9.0344549975675996E-004
          17   4.7074247382041055E-003
          18  -8.9376937324623634E-003
[End of Molden output from Dalton]
