[Molden Format]
[GTO]
    1 0
 s  10 1.00
   20812.2193000    1.0000000000
    3045.2425200    0.0000000000
     682.9126870    0.0000000000
     191.2453230    0.0000000000
      61.5619638    0.0000000000
      21.6954416    0.0000000000
       8.0337275    0.0000000000
       2.2880670    0.0000000000
       0.8918916    0.0000000000
       0.3064906    0.0000000000
 s  10 1.00
   20812.2193000    0.0000000000
    3045.2425200    1.0000000000
     682.9126870    0.0000000000
     191.2453230    0.0000000000
      61.5619638    0.0000000000
      21.6954416    0.0000000000
       8.0337275    0.0000000000
       2.2880670    0.0000000000
       0.8918916    0.0000000000
       0.3064906    0.0000000000
 s  10 1.00
   20812.2193000    0.0000000000
    3045.2425200    0.0000000000
     682.9126870    1.0000000000
     191.2453230    0.0000000000
      61.5619638    0.0000000000
      21.6954416    0.0000000000
       8.0337275    0.0000000000
       2.2880670    0.0000000000
       0.8918916    0.0000000000
       0.3064906    0.0000000000
 s  10 1.00
   20812.2193000    0.0000000000
    3045.2425200    0.0000000000
     682.9126870    0.0000000000
     191.2453230    1.0000000000
      61.5619638    0.0000000000
      21.6954416    0.0000000000
       8.0337275    0.0000000000
       2.2880670    0.0000000000
       0.8918916    0.0000000000
       0.3064906    0.0000000000
 s  10 1.00
   20812.2193000    0.0000000000
    3045.2425200    0.0000000000
     682.9126870    0.0000000000
     191.2453230    0.0000000000
      61.5619638    1.0000000000
      21.6954416    0.0000000000
       8.0337275    0.0000000000
       2.2880670    0.0000000000
       0.8918916    0.0000000000
       0.3064906    0.0000000000
 s  10 1.00
   20812.2193000    0.0000000000
    3045.2425200    0.0000000000
     682.9126870    0.0000000000
     191.2453230    0.0000000000
      61.5619638    0.0000000000
      21.6954416    1.0000000000
       8.0337275    0.0000000000
       2.2880670    0.0000000000
       0.8918916    0.0000000000
       0.3064906    0.0000000000
 s  10 1.00
   20812.2193000    0.0000000000
    3045.2425200    0.0000000000
     682.9126870    0.0000000000
     191.2453230    0.0000000000
      61.5619638    0.0000000000
      21.6954416    0.0000000000
       8.0337275    1.0000000000
       2.2880670    0.0000000000
       0.8918916    0.0000000000
       0.3064906    0.0000000000
 s  10 1.00
   20812.2193000    0.0000000000
    3045.2425200    0.0000000000
     682.9126870    0.0000000000
     191.2453230    0.0000000000
      61.5619638    0.0000000000
      21.6954416    0.0000000000
       8.0337275    0.0000000000
       2.2880670    1.0000000000
       0.8918916    0.0000000000
       0.3064906    0.0000000000
 s  10 1.00
   20812.2193000    0.0000000000
    3045.2425200    0.0000000000
     682.9126870    0.0000000000
     191.2453230    0.0000000000
      61.5619638    0.0000000000
      21.6954416    0.0000000000
       8.0337275    0.0000000000
       2.2880670    0.0000000000
       0.8918916    1.0000000000
       0.3064906    0.0000000000
 s  10 1.00
   20812.2193000    0.0000000000
    3045.2425200    0.0000000000
     682.9126870    0.0000000000
     191.2453230    0.0000000000
      61.5619638    0.0000000000
      21.6954416    0.0000000000
       8.0337275    0.0000000000
       2.2880670    0.0000000000
       0.8918916    0.0000000000
       0.3064906    1.0000000000
 p   6 1.00
      81.2382078    1.0000000000
      18.7382214    0.0000000000
       5.7166582    0.0000000000
       1.9595904    0.0000000000
       0.6723315    0.0000000000
       0.2172270    0.0000000000
 p   6 1.00
      81.2382078    0.0000000000
      18.7382214    1.0000000000
       5.7166582    0.0000000000
       1.9595904    0.0000000000
       0.6723315    0.0000000000
       0.2172270    0.0000000000
 p   6 1.00
      81.2382078    0.0000000000
      18.7382214    0.0000000000
       5.7166582    1.0000000000
       1.9595904    0.0000000000
       0.6723315    0.0000000000
       0.2172270    0.0000000000
 p   6 1.00
      81.2382078    0.0000000000
      18.7382214    0.0000000000
       5.7166582    0.0000000000
       1.9595904    1.0000000000
       0.6723315    0.0000000000
       0.2172270    0.0000000000
 p   6 1.00
      81.2382078    0.0000000000
      18.7382214    0.0000000000
       5.7166582    0.0000000000
       1.9595904    0.0000000000
       0.6723315    1.0000000000
       0.2172270    0.0000000000
 p   6 1.00
      81.2382078    0.0000000000
      18.7382214    0.0000000000
       5.7166582    0.0000000000
       1.9595904    0.0000000000
       0.6723315    0.0000000000
       0.2172270    1.0000000000
 d   1 1.00
       1.6181196    1.0000000000

    2 0
 s   6 1.00
      82.9687389    1.0000000000
      12.4571508    0.0000000000
       2.8338242    0.0000000000
       0.8001641    0.0000000000
       0.2586294    0.0000000000
       0.0899767    0.0000000000
 s   6 1.00
      82.9687389    0.0000000000
      12.4571508    1.0000000000
       2.8338242    0.0000000000
       0.8001641    0.0000000000
       0.2586294    0.0000000000
       0.0899767    0.0000000000
 s   6 1.00
      82.9687389    0.0000000000
      12.4571508    0.0000000000
       2.8338242    1.0000000000
       0.8001641    0.0000000000
       0.2586294    0.0000000000
       0.0899767    0.0000000000
 s   6 1.00
      82.9687389    0.0000000000
      12.4571508    0.0000000000
       2.8338242    0.0000000000
       0.8001641    1.0000000000
       0.2586294    0.0000000000
       0.0899767    0.0000000000
 s   6 1.00
      82.9687389    0.0000000000
      12.4571508    0.0000000000
       2.8338242    0.0000000000
       0.8001641    0.0000000000
       0.2586294    1.0000000000
       0.0899767    0.0000000000
 s   6 1.00
      82.9687389    0.0000000000
      12.4571508    0.0000000000
       2.8338242    0.0000000000
       0.8001641    0.0000000000
       0.2586294    0.0000000000
       0.0899767    1.0000000000
 p   1 1.00
       0.5024489    1.0000000000

[SCFCONV]
scf-first  1  THROUGH   9
      -99.9498546180
     -100.0542527858
     -100.0591852930
     -100.0598397416
     -100.0599536683
     -100.0599608714
     -100.0599611200
     -100.0599611267
     -100.0599611268
[TITLE]
*** Dalton interface to Molden, wave function type : HF            22Nov22   17:
[Atoms] AU
F          1     9         0.0000000000         0.0000000000         0.000000000
H          2     1         0.0000000000         0.0000000000         1.732878764
[5D7F]
[9G]
[MO]
Sym= A
 Ene=   -26.289935313434494
Spin= Alpha
Occup=  2.0000
           1  -4.7246560803852582E-004
           2  -3.7696971926081705E-003
           3  -1.9677586392453410E-002
           4  -7.7635562573565603E-002
           5 -0.22788859536155084
           6 -0.43187530894918330
           7 -0.35397174520307362
           8  -4.5371236007092322E-002
           9   8.8265138621112359E-003
          10  -3.1951890111115173E-003
          11   2.0160011720470720E-019
          12   1.2091638130597077E-018
          13  -3.2486901553362713E-005
          14   1.8854010765224956E-018
          15   1.1308320582572627E-017
          16  -4.8156831250220351E-004
          17   6.2768677869992336E-018
          18   3.7647604042280792E-017
          19  -5.9201973725856003E-004
          20   1.5156135882371394E-017
          21   9.0903970240117176E-017
          22  -1.7978518425258122E-004
          23   1.5368022398097591E-017
          24   9.2174830152520704E-017
          25   4.0082771400346061E-004
          26   1.1575969497193577E-017
          27   6.9430730552986989E-017
          28  -4.8807647419718840E-004
          29   1.2805178108704288E-004
          30   1.5338733011463064E-020
          31   9.1999157306121770E-020
          32   0.0000000000000000
          33   0.0000000000000000
          34  -9.6483034355451575E-007
          35   1.4877450007406921E-006
          36  -1.2663458714115114E-004
          37  -2.8615138511525864E-004
          38   3.9974138213888483E-004
          39   3.3639578736959202E-004
          40  -6.9626578398510496E-020
          41  -4.1760858175078246E-019
          42   2.5835446581406112E-004
Sym= A
 Ene=   -1.5987086166755042
Spin= Alpha
Occup=  2.0000
           1   1.0367921408569064E-004
           2   8.3229961910235369E-004
           3   4.3557932253472957E-003
           4   1.7811380094743149E-002
           5   5.5748272761080284E-002
           6  0.13220123963245278
           7  0.16677426272003479
           8 -0.14418685212458182
           9 -0.57688221986501809
          10 -0.31880061909766794
          11  -5.6754386872753036E-019
          12   1.9496235599806049E-018
          13  -5.5102686854060427E-004
          14  -5.3077738044473157E-018
          15   1.8233235227085450E-017
          16  -4.1641887244262188E-003
          17  -1.7670613870266858E-017
          18   6.0701995068741897E-017
          19  -1.3225847317420587E-002
          20  -4.2667495004018858E-017
          21   1.4657114293508652E-016
          22  -3.6074430821042391E-002
          23  -4.3263997102003342E-017
          24   1.4862024364410170E-016
          25  -4.5670666372902499E-002
          26  -3.2588624470085070E-017
          27   1.1194826260160737E-016
          28   6.1201452517026557E-003
          29  -1.1585599833419117E-002
          30  -4.3181541734238357E-020
          31   1.4833699342072448E-019
          32   0.0000000000000000
          33   0.0000000000000000
          34  -8.4515067545382343E-004
          35  -5.7407206813721440E-003
          36  -3.0666413613817521E-002
          37  -7.5481759603708051E-002
          38  -5.3238465995108536E-002
          39  -5.0353612397909765E-003
          40   1.9601247369526519E-019
          41  -6.7334096591201626E-019
          42   2.4706110041426275E-002
Sym= A
 Ene=  -0.76541236351170272
Spin= Alpha
Occup=  2.0000
           1   2.5343820796299293E-005
           2   2.0072625269084666E-004
           3   1.0720683195448815E-003
           4   4.2706841450309684E-003
           5   1.3922265583447583E-002
           6   3.1542191363149577E-002
           7   4.4880899781752956E-002
           8  -5.4527829390215297E-002
           9 -0.12124268076990362
          10 -0.25028600952774532
          11  -3.8506374330159380E-019
          12   3.7400501597720862E-017
          13   5.0769402525026232E-003
          14  -3.6011863793382543E-018
          15   3.4977631438193350E-016
          16   3.6324136359449644E-002
          17  -1.1989051592747121E-017
          18   1.1644735476913393E-015
          19  0.13383283888243896
          20  -2.8948784840870939E-017
          21   2.8117398548352667E-015
          22  0.29862110925421403
          23  -2.9353495989018926E-017
          24   2.8510486711188366E-015
          25  0.34374054191210374
          26  -2.2110533509304353E-017
          27   2.1475536407320595E-015
          28  0.14675274610931921
          29   2.2889045491665143E-002
          30  -2.9297552168090530E-020
          31   2.8456149552724284E-018
          32   0.0000000000000000
          33   0.0000000000000000
          34   1.4345516953794464E-003
          35   1.0505226723870298E-002
          36   5.2651630264044971E-002
          37  0.17263344367491679
          38  0.21823281718523829
          39  -3.7937507597828619E-003
          40   1.3298936172834161E-019
          41  -1.2917001203890282E-017
          42  -4.4206620575390806E-002
Sym= A
 Ene=  -0.64667749405890451
Spin= Alpha
Occup=  2.0000
           1  -4.4372299037125598E-019
           2   4.2284513617145520E-019
           3  -9.7716687888688851E-018
           4  -1.0095742985663453E-017
           5  -1.0370994925405279E-016
           6  -1.6707252772294029E-016
           7  -4.3134704777634772E-016
           8   6.1885511870755628E-016
           9   1.4430434450362543E-015
          10   1.0831820613166761E-015
          11  -6.1937237754374483E-005
          12   6.0234185270890495E-003
          13  -3.2065320160837030E-017
          14  -4.3585179923067802E-004
          15   4.2386854349385168E-002
          16  -2.8379997772325774E-016
          17  -1.6564220592895963E-003
          18  0.16108715176172889
          19  -9.7359678639871416E-016
          20  -3.5596541513649772E-003
          21  0.34617894540013028
          22  -2.2903449151598681E-015
          23  -4.3986668527985270E-003
          24  0.42777505410765554
          25  -2.4196347880500965E-015
          26  -2.7285569483756224E-003
          27  0.26535354124989324
          28  -1.7673601603006169E-015
          29  -1.1209321564198881E-017
          30  -1.2861799075484785E-004
          31   1.2510614865937086E-002
          32   0.0000000000000000
          33   0.0000000000000000
          34  -5.8163608203306071E-018
          35  -4.4741884280271820E-017
          36  -2.3435767537297620E-016
          37  -6.9098894904269669E-016
          38  -9.9805786756031066E-016
          39  -7.2522168719155013E-016
          40  -4.2551138592987470E-004
          41   4.1385685918612726E-002
          42  -4.3292932028295302E-017
Sym= A
 Ene=  -0.64667749405851771
Spin= Alpha
Occup=  2.0000
           1   3.8106690942274550E-020
           2   2.1665902960333523E-019
           3   1.3971195613585085E-018
           4   4.9133509283329409E-018
           5   1.6183122914932430E-017
           6   3.1220386506910232E-017
           7   3.4402961483312348E-017
           8  -1.7560038468024912E-017
           9  -5.7272918881997503E-017
          10  -3.8540028667515940E-017
          11   6.0234185271613727E-003
          12   6.1937237728433930E-005
          13  -6.1660602382755382E-020
          14   4.2386854349307508E-002
          15   4.3585179824382885E-004
          16  -5.1777181346711847E-019
          17  0.16108715176155397
          18   1.6564220598109685E-003
          19  -1.8303755077493627E-018
          20  0.34617894540004507
          21   3.5596541509141238E-003
          22  -4.1974074472093079E-018
          23  0.42777505410656591
          24   4.3986668525345810E-003
          25  -4.5397808521258990E-018
          26  0.26535354125161342
          27   2.7285569493607697E-003
          28  -3.2669919148072243E-018
          29  -2.2905068464996531E-022
          30   1.2510614865707124E-002
          31   1.2861799194884902E-004
          32   0.0000000000000000
          33   0.0000000000000000
          34  -2.6363351986997688E-020
          35  -2.7875152551171897E-019
          36  -1.0258978468140054E-018
          37  -4.2372894723472093E-018
          38  -5.3136345016821843E-018
          39  -3.9532982180489255E-018
          40   4.1385685918648420E-002
          41   4.2551138569415538E-004
          42  -1.0743525515299186E-019
Sym= A
 Ene=   0.12219708191423383
Spin= Alpha
Occup=  0.0000
           1  -2.2232525053497926E-005
           2  -1.6727537414042395E-004
           3  -9.6237934620172069E-004
           4  -3.4562834641342142E-003
           5  -1.2935621712797930E-002
           6  -2.3744259512157074E-002
           7  -4.8100999069986841E-002
           8   8.2885022002235603E-002
           9  -1.1771146339266713E-002
          10  0.54194239204165429
          11   1.3610504945687749E-020
          12  -3.3842526445953881E-018
          13   1.4204403239804716E-003
          14   1.2728792538626706E-019
          15  -3.1650148163680536E-017
          16   1.0253637007523063E-002
          17   4.2376632138382241E-019
          18  -1.0536951417720561E-016
          19   3.7803775670868095E-002
          20   1.0232268971107620E-018
          21  -2.5442541231104712E-016
          22   8.4792825581694931E-002
          23   1.0375318613647454E-018
          24  -2.5798234229275009E-016
          25  0.10958517412576414
          26   7.8152132189834085E-019
          27  -1.9432531055948547E-016
          28  0.10715527991066809
          29   7.8755768442602420E-003
          30   1.0355544649848893E-021
          31  -2.5749066259759067E-019
          32   0.0000000000000000
          33   0.0000000000000000
          34  -1.4472648609876172E-005
          35  -4.9252857636480542E-003
          36   1.2493221025080624E-002
          37 -0.14632084711896062
          38  0.31938593242397734
          39  -1.4210573717604611
          40  -4.7006564419729673E-021
          41   1.1688184280174286E-018
          42  -3.4651704145321080E-002
Sym= A
 Ene=   0.48022607092112107
Spin= Alpha
Occup=  0.0000
           1  -1.9133562278462619E-005
           2  -1.4843867340469396E-004
           3  -8.1718363511614856E-004
           4  -3.1229362320807042E-003
           5  -1.0779732911553727E-002
           6  -2.2467144433182165E-002
           7  -3.7787697297532175E-002
           8   5.8814508637411597E-002
           9   2.5252329646063918E-002
          10  0.91402862292379805
          11  -7.3143347574690154E-021
          12   1.3152677510773812E-018
          13   2.5476378247835138E-003
          14  -6.8404993097267070E-020
          15   1.2300623968777793E-017
          16   1.6867296792467030E-002
          17  -2.2773355918207716E-019
          18   4.0951175487826773E-017
          19   7.0366720620484213E-002
          20  -5.4988584833477791E-019
          21   9.8880779601869505E-017
          22  0.13454638305697333
          23  -5.5757338804512578E-019
          24   1.0026315727548947E-016
          25  0.24459880977421797
          26  -4.1999239493925324E-019
          27   7.5523266445594335E-017
          28  0.97903737083217346
          29  -2.1465273429403881E-002
          30  -5.5651072805288401E-022
          31   1.0007206916402031E-019
          32   0.0000000000000000
          33   0.0000000000000000
          34  -2.0293562589939326E-003
          35  -2.8517509642768408E-003
          36 -0.11195464396972543
          37  0.13258928822268393
          38  -2.8447791727379212
          39   1.3222695866921821
          40   2.5261498330783410E-021
          41  -4.5425367036057506E-019
          42   2.4857894582294853E-002
Sym= A
 Ene=   0.69498930222787469
Spin= Alpha
Occup=  0.0000
           1   3.7682466657260528E-021
           2  -3.6130507388911743E-021
           3   8.2935582549588165E-020
           4   8.5382898553808379E-020
           5   8.8010432928848979E-019
           6   1.4173623946427020E-018
           7   3.6633767218917006E-018
           8  -5.2586380567590134E-018
           9  -1.2260640717187709E-017
          10  -9.2035117307479271E-018
          11   3.2012117653209000E-009
          12  -4.4673131261143200E-003
          13   2.7255563667770013E-019
          14   1.5338970121561897E-008
          15  -2.0225330861793660E-002
          16   2.4123010425734604E-018
          17   9.8709906822885790E-008
          18 -0.13673481632112008
          19   8.2755816399567080E-018
          20   7.0550303532605894E-008
          21  -8.7398693666587104E-002
          22   1.9467943367599127E-017
          23   5.1079900425039335E-007
          24 -0.78486166422161596
          25   2.0566917154290541E-017
          26  -8.8871272047071086E-007
          27   1.2763121389351451
          28   1.5022572754828435E-017
          29   9.5277514904200878E-020
          30   9.6284624296768172E-009
          31  -4.9714895530362036E-003
          32   0.0000000000000000
          33   0.0000000000000000
          34   4.9440468688084878E-020
          35   3.8032343613731398E-019
          36   1.9920935427800803E-018
          37   5.8736691780598542E-018
          38   8.4838014193999762E-018
          39   6.1646173268576140E-018
          40   7.5946029505281328E-008
          41   1.1557812985822660E-002
          42   3.6799259630581934E-019
Sym= A
 Ene=   0.69498930222804967
Spin= Alpha
Occup=  0.0000
           1   3.6267551074172182E-022
           2   1.8046180062302571E-021
           3   1.2729192780515686E-020
           4   4.2644933174873106E-020
           5   1.4661668546290484E-019
           6   2.7996800630472593E-019
           7   3.3011291817782782E-019
           8  -2.0333599879129841E-019
           9  -6.1291067482642745E-019
          10  -4.2223767703394919E-019
          11   4.4673131261200837E-003
          12   3.1913129141535598E-009
          13   2.2779090016341031E-021
          14   2.0225330861869690E-002
          15   1.5331506051932757E-008
          16   2.0398761957962130E-020
          17  0.13673481632130088
          18   9.8227659580495520E-008
          19   6.9519439059101551E-020
          20   8.7398693667054675E-002
          21   7.1170427082342887E-008
          22   1.6446351786650519E-019
          23  0.78486166422221804
          24   5.1045280286319319E-007
          25   1.7285133836115567E-019
          26  -1.2763121389347583
          27  -8.8861083719184278E-007
          28   1.2667110204977073E-019
          29   9.7757497022845760E-022
          30   4.9714895529812345E-003
          31   9.6263114916721703E-009
          32   0.0000000000000000
          33   0.0000000000000000
          34   2.8417584851840861E-022
          35   1.5404060635950716E-021
          36   1.1759274614044427E-020
          37   2.4365476247069499E-020
          38   4.2049799132237937E-020
          39   2.9770771337566902E-020
          40  -1.1557812985857341E-002
          41   7.5957476784361617E-008
          42   2.8699517081260769E-021
Sym= A
 Ene=   0.70286243402594384
Spin= Alpha
Occup=  0.0000
           1   1.6463203884538235E-005
           2   1.3744479243172429E-004
           3   6.7915414404674465E-004
           4   3.0103308287568482E-003
           5   8.5035502950925584E-003
           6   2.3902970733236262E-002
           7   2.3213400979633252E-002
           8  -9.2700687332725028E-003
           9 -0.14382215063202128
          10 -0.69889211935838325
          11   1.0301279211196103E-021
          12  -1.1340912227858001E-018
          13   3.7957497648190013E-003
          14   9.6339442573590125E-021
          15  -1.0606228021897090E-017
          16   1.7732085217354771E-002
          17   3.2073278796566795E-020
          18  -3.5310201018347330E-017
          19  0.11510000437923953
          20   7.7444194800737875E-020
          21  -8.5260072830643755E-017
          22   8.4650152670443707E-002
          23   7.8526883734611643E-020
          24  -8.6452029666005891E-017
          25  0.59589022386218127
          26   5.9150409029479402E-020
          27  -6.5120028619167326E-017
          28  -1.7863484808324226
          29   5.7091967979823379E-004
          30   7.8377222027770259E-023
          31  -8.6287263708911431E-020
          32   0.0000000000000000
          33   0.0000000000000000
          34  -2.3127008454069806E-004
          35   4.2231830146376038E-003
          36  -2.1665737936902088E-002
          37  0.11311279346859844
          38   1.0166389642762070
          39  0.10824312416221567
          40  -3.5577500377875166E-022
          41   3.9168078138627244E-019
          42 -0.27431307099734881
Sym= A
 Ene=    1.1331830128126141
Spin= Alpha
Occup=  0.0000
           1  -1.7969136573139486E-021
           2  -8.9430245557765115E-021
           3  -6.3072207940021648E-020
           4  -2.1131846347831160E-019
           5  -7.2648106202682063E-019
           6  -1.3872545093746329E-018
           7  -1.6355595157223377E-018
           8   1.0071882774968699E-018
           9   3.0362407598793868E-018
          10   2.0916208176852148E-018
          11  -6.0884441323447408E-004
          12  -1.0907861224738761E-008
          13  -1.1265477786354779E-020
          14  -3.4467645864538423E-003
          15  -6.5906220083701412E-008
          16  -1.0088514429525821E-019
          17  -1.8057962558895774E-002
          18  -3.2041252461225129E-007
          19  -3.4381432221612734E-019
          20  -2.1761036407621871E-002
          21  -4.6391973790865913E-007
          22  -8.1337748283069946E-019
          23  -9.5350299718332476E-002
          24  -1.5387359779351518E-006
          25  -8.5485182379268214E-019
          26 -0.54203469828639406
          27  -9.6852949265197816E-006
          28  -6.2646742792610461E-019
          29  -4.8364313946514091E-021
          30   4.0966324505818733E-002
          31   7.0708179622719256E-007
          32   0.0000000000000000
          33   0.0000000000000000
          34  -1.4041199638022625E-021
          35  -7.6018607152563567E-021
          36  -5.8107332649076426E-020
          37  -1.2025473930788631E-019
          38  -2.0767214902035320E-019
          39  -1.4701634831543890E-019
          40   1.1544028325188027
          41   2.0313966702916582E-005
          42  -1.4191403607149332E-020
Sym= A
 Ene=    1.1331830128126310
Spin= Alpha
Occup=  0.0000
           1   1.8673451407200770E-020
           2  -1.7904203201731344E-020
           3   4.1098558379902083E-019
           4   4.2311566081129718E-019
           5   4.3613399688003592E-018
           6   7.0237155533150734E-018
           7   1.8153769177120056E-017
           8  -2.6059023254617506E-017
           9  -6.0757249069036319E-017
          10  -4.5607732002509386E-017
          11   1.1032620805209804E-008
          12  -6.0884440541800720E-004
          13   1.3506406014133110E-018
          14   6.5262713825113162E-008
          15  -3.4467653236536443E-003
          16   1.1954079453402268E-017
          17   3.2598262295952167E-007
          18  -1.8057961730319351E-002
          19   4.1009375948107450E-017
          20   4.5799020340768843E-007
          21  -2.1761036930497364E-002
          22   9.6472760932829735E-017
          23   1.5412215137329475E-006
          24  -9.5350299479183734E-002
          25   1.0191868975773816E-016
          26   9.6824397011488429E-006
          27 -0.54203469835699525
          28   7.4443871251413775E-017
          29   4.7214464431226170E-019
          30  -7.2041702686596705E-007
          31   4.0966324507222207E-002
          32   0.0000000000000000
          33   0.0000000000000000
          34   2.4500062540503749E-019
          35   1.8846802939296370E-018
          36   9.8717544162262721E-018
          37   2.9106774706198076E-017
          38   4.2041199874276521E-017
          39   3.0548559050681248E-017
          40  -2.0309395262284042E-005
          41   1.1544028325130531
          42   1.8235753367567413E-018
Sym= A
 Ene=    1.2654747683841014
Spin= Alpha
Occup=  0.0000
           1   6.1160732426559795E-005
           2   5.9878694499792173E-004
           3   2.3038958543653881E-003
           4   1.4099096296989785E-002
           5   2.4346680795267042E-002
           6  0.12930571293449863
           7  -2.1695052336628876E-003
           8  0.40534157724468012
           9  -2.3171563686832650
          10   3.2655778077363089
          11  -1.1565223769387296E-020
          12   1.8045431435187480E-018
          13   6.0383883778105129E-005
          14  -1.0816008267939331E-019
          15   1.6876416703505282E-017
          16  -3.7909624290882690E-003
          17  -3.6008600359013931E-019
          18   5.6184881660080224E-017
          19   7.6023346633862614E-003
          20  -8.6946429094069942E-019
          21   1.3566411303722231E-016
          22  -7.0459575590205589E-002
          23  -8.8161961605700424E-019
          24   1.3756073077960525E-016
          25  0.18625550555098241
          26  -6.6408035589967167E-019
          27   1.0361767976818751E-016
          28  0.87712739983831489
          29  -1.4998111629457607E-002
          30  -8.7993936747825897E-022
          31   1.3729855850221865E-019
          32   0.0000000000000000
          33   0.0000000000000000
          34   2.4784599539217039E-004
          35  -6.3421568390115137E-003
          36   3.0760015690968173E-002
          37 -0.40460368160946580
          38 -0.92182209898272682
          39 -0.54138297407370828
          40   3.9942782307918249E-021
          41  -6.2323458139721813E-019
          42  0.32133379897987940
Sym= A
 Ene=    1.4818637310479914
Spin= Alpha
Occup=  0.0000
           1   1.8669909240595132E-005
           2   1.6735839728934451E-004
           3   7.4168245824532701E-004
           4   3.7954359696824522E-003
           5   8.6993001323118387E-003
           6   3.2578838561008946E-002
           7   1.4339894353053141E-002
           8   5.8916933048530941E-002
           9 -0.43231833310154394
          10   1.4356125263372734
          11   4.8936964447041937E-022
          12  -2.0767795653339929E-018
          13  -2.2070247193398430E-003
          14   4.5766741970192975E-021
          15  -1.9422421387803876E-017
          16  -1.7489901929509041E-002
          17   1.5236640732104694E-020
          18  -6.4661027657567939E-017
          19  -5.9583388954922933E-002
          20   3.6790419228627107E-020
          21  -1.5613062991412499E-016
          22 -0.15356912892616292
          23   3.7304758358566090E-020
          24  -1.5831337460758608E-016
          25 -0.13014289181525290
          26   2.8099825317279491E-020
          27  -1.1924961767898387E-016
          28  0.90070240727849971
          29   4.7163282475220940E-002
          30   3.7233660497879411E-023
          31  -1.5801165057836741E-019
          32   0.0000000000000000
          33   0.0000000000000000
          34   7.8958357978868219E-004
          35   4.9735726068850669E-002
          36  -8.9181961906124999E-002
          37   2.0390754564396190
          38  -3.7757931300155700
          39   1.0332032591382831
          40  -1.6901346283633317E-022
          41   7.1725680136993850E-019
          42  0.34370977684507709
Sym= A
 Ene=    1.8542536288552063
Spin= Alpha
Occup=  0.0000
           1  -1.2677972669959739E-005
           2  -1.2617856941810345E-004