[Molden Format]
[GTO]
    1 0
 s   9 1.00
    3045.2425200    1.0000000000
     682.9126870    0.0000000000
     191.2453230    0.0000000000
      61.5619638    0.0000000000
      21.6954416    0.0000000000
       8.0337275    0.0000000000
       2.2880670    0.0000000000
       0.8918916    0.0000000000
       0.3064906    0.0000000000
 s   9 1.00
    3045.2425200    0.0000000000
     682.9126870    1.0000000000
     191.2453230    0.0000000000
      61.5619638    0.0000000000
      21.6954416    0.0000000000
       8.0337275    0.0000000000
       2.2880670    0.0000000000
       0.8918916    0.0000000000
       0.3064906    0.0000000000
 s   9 1.00
    3045.2425200    0.0000000000
     682.9126870    0.0000000000
     191.2453230    1.0000000000
      61.5619638    0.0000000000
      21.6954416    0.0000000000
       8.0337275    0.0000000000
       2.2880670    0.0000000000
       0.8918916    0.0000000000
       0.3064906    0.0000000000
 s   9 1.00
    3045.2425200    0.0000000000
     682.9126870    0.0000000000
     191.2453230    0.0000000000
      61.5619638    1.0000000000
      21.6954416    0.0000000000
       8.0337275    0.0000000000
       2.2880670    0.0000000000
       0.8918916    0.0000000000
       0.3064906    0.0000000000
 s   9 1.00
    3045.2425200    0.0000000000
     682.9126870    0.0000000000
     191.2453230    0.0000000000
      61.5619638    0.0000000000
      21.6954416    1.0000000000
       8.0337275    0.0000000000
       2.2880670    0.0000000000
       0.8918916    0.0000000000
       0.3064906    0.0000000000
 s   9 1.00
    3045.2425200    0.0000000000
     682.9126870    0.0000000000
     191.2453230    0.0000000000
      61.5619638    0.0000000000
      21.6954416    0.0000000000
       8.0337275    1.0000000000
       2.2880670    0.0000000000
       0.8918916    0.0000000000
       0.3064906    0.0000000000
 s   9 1.00
    3045.2425200    0.0000000000
     682.9126870    0.0000000000
     191.2453230    0.0000000000
      61.5619638    0.0000000000
      21.6954416    0.0000000000
       8.0337275    0.0000000000
       2.2880670    1.0000000000
       0.8918916    0.0000000000
       0.3064906    0.0000000000
 s   9 1.00
    3045.2425200    0.0000000000
     682.9126870    0.0000000000
     191.2453230    0.0000000000
      61.5619638    0.0000000000
      21.6954416    0.0000000000
       8.0337275    0.0000000000
       2.2880670    0.0000000000
       0.8918916    1.0000000000
       0.3064906    0.0000000000
 s   9 1.00
    3045.2425200    0.0000000000
     682.9126870    0.0000000000
     191.2453230    0.0000000000
      61.5619638    0.0000000000
      21.6954416    0.0000000000
       8.0337275    0.0000000000
       2.2880670    0.0000000000
       0.8918916    0.0000000000
       0.3064906    1.0000000000
 p   6 1.00
      81.2382078    1.0000000000
      18.7382214    0.0000000000
       5.7166582    0.0000000000
       1.9595904    0.0000000000
       0.6723315    0.0000000000
       0.2172270    0.0000000000
 p   6 1.00
      81.2382078    0.0000000000
      18.7382214    1.0000000000
       5.7166582    0.0000000000
       1.9595904    0.0000000000
       0.6723315    0.0000000000
       0.2172270    0.0000000000
 p   6 1.00
      81.2382078    0.0000000000
      18.7382214    0.0000000000
       5.7166582    1.0000000000
       1.9595904    0.0000000000
       0.6723315    0.0000000000
       0.2172270    0.0000000000
 p   6 1.00
      81.2382078    0.0000000000
      18.7382214    0.0000000000
       5.7166582    0.0000000000
       1.9595904    1.0000000000
       0.6723315    0.0000000000
       0.2172270    0.0000000000
 p   6 1.00
      81.2382078    0.0000000000
      18.7382214    0.0000000000
       5.7166582    0.0000000000
       1.9595904    0.0000000000
       0.6723315    1.0000000000
       0.2172270    0.0000000000
 p   6 1.00
      81.2382078    0.0000000000
      18.7382214    0.0000000000
       5.7166582    0.0000000000
       1.9595904    0.0000000000
       0.6723315    0.0000000000
       0.2172270    1.0000000000
 d   1 1.00
       1.6181196    1.0000000000

    2 0
 s   6 1.00
      82.9687389    1.0000000000
      12.4571508    0.0000000000
       2.8338242    0.0000000000
       0.8001641    0.0000000000
       0.2586294    0.0000000000
       0.0899767    0.0000000000
 s   6 1.00
      82.9687389    0.0000000000
      12.4571508    1.0000000000
       2.8338242    0.0000000000
       0.8001641    0.0000000000
       0.2586294    0.0000000000
       0.0899767    0.0000000000
 s   6 1.00
      82.9687389    0.0000000000
      12.4571508    0.0000000000
       2.8338242    1.0000000000
       0.8001641    0.0000000000
       0.2586294    0.0000000000
       0.0899767    0.0000000000
 s   6 1.00
      82.9687389    0.0000000000
      12.4571508    0.0000000000
       2.8338242    0.0000000000
       0.8001641    1.0000000000
       0.2586294    0.0000000000
       0.0899767    0.0000000000
 s   6 1.00
      82.9687389    0.0000000000
      12.4571508    0.0000000000
       2.8338242    0.0000000000
       0.8001641    0.0000000000
       0.2586294    1.0000000000
       0.0899767    0.0000000000
 s   6 1.00
      82.9687389    0.0000000000
      12.4571508    0.0000000000
       2.8338242    0.0000000000
       0.8001641    0.0000000000
       0.2586294    0.0000000000
       0.0899767    1.0000000000
 p   1 1.00
       0.5024489    1.0000000000

*** Dalton interface to Molden, wave function type :
HF          28Aug22   16:56:27
[Atoms] AU
F          1     9         0.0000000000         0.0000000000         0.087294744
H          2     1         0.0000000000         0.0000000000        -1.645584019
[5D7F]
[9G]
[MO]
Sym= A
 Ene=   -26.284807180329949
Spin= Alpha
Occup=  2.0000
    1       -0.0043290503397701
    2       -0.0190063427750815
    3       -0.0783141908787960
    4       -0.2270675369852148
    5       -0.4325652362424507
    6       -0.3535660128813436
    7       -0.0457338434690453
    8        0.0090566964730133
    9       -0.0032785964955484
   10        0.0000000000000000
   11       -0.0000000000000000
   12        0.0000324039701936
   13        0.0000000000000000
   14       -0.0000000000000000
   15        0.0004821831103425
   16        0.0000000000000000
   17       -0.0000000000000000
   18        0.0005899427003913
   19        0.0000000000000000
   20       -0.0000000000000001
   21        0.0001865663533640
   22        0.0000000000000000
   23       -0.0000000000000001
   24       -0.0004174816567642
   25        0.0000000000000000
   26       -0.0000000000000001
   27        0.0005044520743359
   28        0.0001297340764712
   29       -0.0000000000000000
   30        0.0000000000000000
   31        0.0000000000000000
   32        0.0000000000000000
   33       -0.0000010663860136
   34        0.0000024779718196
   35       -0.0001284604533268
   36       -0.0002949121719598
   37        0.0004127416526430
   38        0.0003471224868276
   39       -0.0000000000000000
   40        0.0000000000000000
   41       -0.0002679541449099
Sym= A
 Ene=   -1.5984307776797195
Spin= Alpha
Occup=  2.0000
    1       -0.0009552519381258
    2       -0.0042073807497639
    3       -0.0179636441844793
    4       -0.0555551970961874
    5       -0.1323639625595731
    6       -0.1666623860595618
    7        0.1439549318383762
    8        0.5769549609404004
    9        0.3188171255734385
   10        0.0000000000000000
   11        0.0000000000000000
   12       -0.0005514275068785
   13        0.0000000000000000
   14        0.0000000000000000
   15       -0.0041668761395511
   16        0.0000000000000000
   17        0.0000000000000000
   18       -0.0132360200233495
   19        0.0000000000000001
   20        0.0000000000000001
   21       -0.0360925190613027
   22        0.0000000000000001
   23        0.0000000000000001
   24       -0.0457038990715989
   25        0.0000000000000001
   26        0.0000000000000001
   27        0.0061328907390757
   28        0.0115889258703132
   29       -0.0000000000000000
   30       -0.0000000000000000
   31       -0.0000000000000000
   32        0.0000000000000000
   33        0.0008453565968380
   34        0.0057427083407280
   35        0.0306749248991716
   36        0.0755046454465412
   37        0.0532806003517298
   38        0.0050484751764098
   39       -0.0000000000000000
   40       -0.0000000000000000
   41        0.0247096781864950
Sym= A
 Ene=  -0.76543249305297478
Spin= Alpha
Occup=  2.0000
    1       -0.0002308569724313
    2       -0.0010361024504047
    3       -0.0043093232382256
    4       -0.0138792281256264
    5       -0.0315923262023716
    6       -0.0448664794074956
    7        0.0544799164310322
    8        0.1212994841483395
    9        0.2503277160723750
   10        0.0000000000000000
   11        0.0000000000000001
   12        0.0050773422214091
   13        0.0000000000000002
   14        0.0000000000000007
   15        0.0363273910407063
   16        0.0000000000000006
   17        0.0000000000000023
   18        0.1338404983638615
   19        0.0000000000000015
   20        0.0000000000000057
   21        0.2986324806094713
   22        0.0000000000000016
   23        0.0000000000000057
   24        0.3437423944992375
   25        0.0000000000000012
   26        0.0000000000000043
   27        0.1467568268159221
   28       -0.0228885117459861
   29       -0.0000000000000000
   30       -0.0000000000000000
   31        0.0000000000000000
   32        0.0000000000000000
   33       -0.0014344018179635
   34       -0.0105040244526333
   35       -0.0526459214550830
   36       -0.1726182897127564
   37       -0.2182048877698902
   38        0.0038116235464136
   39       -0.0000000000000000
   40       -0.0000000000000000
   41       -0.0442054934268911
Sym= A
 Ene=  -0.64671684252275297
Spin= Alpha
Occup=  2.0000
    1        0.0000000000000000
    2        0.0000000000000000
    3        0.0000000000000000
    4        0.0000000000000002
    5        0.0000000000000004
    6        0.0000000000000009
    7       -0.0000000000000012
    8       -0.0000000000000027
    9       -0.0000000000000020
   10       -0.0000910069717948
   11        0.0060234634754281
   12       -0.0000000000000001
   13       -0.0006404219747308
   14        0.0423875528257738
   15       -0.0000000000000006
   16       -0.0024337891242787
   17        0.1610846839313655
   18       -0.0000000000000019
   19       -0.0052301184814388
   20        0.3461656000096910
   21       -0.0000000000000046
   22       -0.0064627770378938
   23        0.4277505768749533
   24       -0.0000000000000048
   25       -0.0040085779566226
   26        0.2653170159139680
   27       -0.0000000000000035
   28        0.0000000000000000
   29        0.0001890180988026
   30       -0.0125109634495880
   31       -0.0000000000000000
   32        0.0000000000000000
   33        0.0000000000000000
   34        0.0000000000000001
   35        0.0000000000000005
   36        0.0000000000000015
   37        0.0000000000000022
   38        0.0000000000000015
   39       -0.0006252400156983
   40        0.0413839154264955
   41       -0.0000000000000001
Sym= A
 Ene=  -0.64671684252281492
Spin= Alpha
Occup=  2.0000
    1        0.0000000000000000
    2        0.0000000000000000
    3        0.0000000000000000
    4        0.0000000000000001
    5        0.0000000000000002
    6        0.0000000000000003
    7       -0.0000000000000004
    8       -0.0000000000000009
    9       -0.0000000000000006
   10        0.0060234634752558
   11        0.0000910069720129
   12       -0.0000000000000000
   13        0.0423875528259081
   14        0.0006404219753572
   15       -0.0000000000000002
   16        0.1610846839312546
   17        0.0024337891324267
   18       -0.0000000000000006
   19        0.3461656000096996
   20        0.0052301184823009
   21       -0.0000000000000013
   22        0.4277505768748830
   23        0.0064627770464501
   24       -0.0000000000000014
   25        0.2653170159143501
   26        0.0040085779006340
   27       -0.0000000000000010
   28        0.0000000000000000
   29       -0.0125109634494992
   30       -0.0001890181043275
   31       -0.0000000000000000
   32        0.0000000000000000
   33        0.0000000000000000
   34        0.0000000000000000
   35        0.0000000000000001
   36        0.0000000000000004
   37        0.0000000000000006
   38        0.0000000000000004
   39        0.0413839154261124
   40        0.0006252400741983
   41       -0.0000000000000000
Sym= A
 Ene=   0.12220487442523321
Spin= Alpha
Occup=  0.0000
    1        0.0001936727399860
    2        0.0009306865594904
    3        0.0034895149331756
    4        0.0128960454500334
    5        0.0237830640715531
    6        0.0480838328144520
    7       -0.0828434407338009
    8        0.0117637381310224
    9       -0.5420062889784292
   10       -0.0000000000000000
   11       -0.0000000000000000
   12        0.0014203936300852
   13       -0.0000000000000000
   14       -0.0000000000000001
   15        0.0102531297195209
   16       -0.0000000000000001
   17       -0.0000000000000002
   18        0.0378019951588321
   19       -0.0000000000000001
   20       -0.0000000000000006
   21        0.0847821537094978
   22       -0.0000000000000001
   23       -0.0000000000000006
   24        0.1095838799834548
   25       -0.0000000000000001
   26       -0.0000000000000004
   27        0.1071042748132206
   28       -0.0078758825002437
   29        0.0000000000000000
   30        0.0000000000000000
   31        0.0000000000000000
   32        0.0000000000000000
   33        0.0000144522932644
   34        0.0049250958788807
   35       -0.0124944601445540
   36        0.1463232161385858
   37       -0.3194255630053203
   38        1.4210876975584734
   39        0.0000000000000000
   40        0.0000000000000000
   41       -0.0346553620362113
Sym= A
 Ene=   0.48022602665231540
Spin= Alpha
Occup=  0.0000
    1        0.0001711386066509
    2        0.0007898337008790
    3        0.0031511794038980
    4        0.0107447442144704
    5        0.0224975975760453
    6        0.0377709426097542
    7       -0.0587803939668422
    8       -0.0252263448144787
    9       -0.9140810900437523
   10        0.0000000000000000
   11        0.0000000000000000
   12        0.0025480123320888
   13        0.0000000000000000
   14        0.0000000000000000
   15        0.0168693795991897
   16        0.0000000000000000
   17        0.0000000000000001
   18        0.0703763419879497
   19        0.0000000000000001
   20        0.0000000000000002
   21        0.1345507951418398
   22        0.0000000000000001
   23        0.0000000000000002
   24        0.2446368807754557
   25        0.0000000000000000
   26        0.0000000000000001
   27        0.9789060147974725
   28        0.0214654758216614
   29       -0.0000000000000000
   30       -0.0000000000000000
   31        0.0000000000000000
   32        0.0000000000000000
   33        0.0020293814128718
   34        0.0028516314063390
   35        0.1119558753030698
   36       -0.1325863536779835
   37        2.8447118456311706
   38       -1.3222359930583625
   39       -0.0000000000000000
   40       -0.0000000000000000
   41        0.0248331426105017
Sym= A
 Ene=   0.69497896048664243
Spin= Alpha
Occup=  0.0000
    1       -0.0000000000000000
    2       -0.0000000000000000
    3       -0.0000000000000000
    4       -0.0000000000000000
    5       -0.0000000000000000
    6       -0.0000000000000000
    7        0.0000000000000000
    8        0.0000000000000000
    9        0.0000000000000000
   10        0.0000000041872675
   11       -0.0044674237843191
   12        0.0000000000000000
   13        0.0000000198045474
   14       -0.0202265249061914
   15        0.0000000000000000
   16        0.0000001268043936
   17       -0.1367354409918995
   18        0.0000000000000000
   19        0.0000000978199278
   20       -0.0873982492430386
   21        0.0000000000000000
   22        0.0000007035391343
   23       -0.7848409288921430
   24        0.0000000000000000
   25       -0.0000011459956200
   26        1.2763063112842989
   27        0.0000000000000000
   28       -0.0000000000000000
   29       -0.0000000040966024
   30        0.0049718668207752
   31        0.0000000000000000
   32        0.0000000000000000
   33       -0.0000000000000000
   34       -0.0000000000000000
   35       -0.0000000000000000
   36       -0.0000000000000000
   37       -0.0000000000000000
   38       -0.0000000000000000
   39        0.0000000019164267
   40        0.0115706967993228
   41        0.0000000000000000
Sym= A
 Ene=   0.69497896048672070
Spin= Alpha
Occup=  0.0000
    1        0.0000000000000000
    2        0.0000000000000000
    3        0.0000000000000000
    4        0.0000000000000000
    5        0.0000000000000000
    6        0.0000000000000000
    7       -0.0000000000000000
    8       -0.0000000000000000
    9       -0.0000000000000000
   10        0.0044674237843223
   11        0.0000000041874398
   12       -0.0000000000000000
   13        0.0202265249062193
   14        0.0000000198028973
   15       -0.0000000000000000
   16        0.1367354409919742
   17        0.0000001268134857
   18       -0.0000000000000000
   19        0.0873982492432150
   20        0.0000000977780814
   21       -0.0000000000000000
   22        0.7848409288924183
   23        0.0000007036661748
   24       -0.0000000000000000
   25       -1.2763063112840773
   26       -0.0000011456323116
   27       -0.0000000000000000
   28        0.0000000000000000
   29       -0.0049718668207495
   30       -0.0000000040482743
   31       -0.0000000000000000
   32        0.0000000000000000
   33        0.0000000000000000
   34        0.0000000000000000
   35        0.0000000000000000
   36        0.0000000000000000
   37        0.0000000000000000
   38        0.0000000000000000
   39       -0.0115706967994966
   40        0.0000000010702067
   41       -0.0000000000000000
Sym= A
 Ene=   0.70286942292794030
Spin= Alpha
Occup=  0.0000
    1        0.0001569801338561
    2        0.0006556475017053
    3        0.0030346540918436
    4        0.0084739583445672
    5        0.0239287105252546
    6        0.0232030007835210
    7       -0.0092551490863104
    8       -0.1437511954868057
    9       -0.6991540304473453
   10        0.0000000000000000
   11        0.0000000000000000
   12       -0.0037956779553295
   13        0.0000000000000000
   14        0.0000000000000000
   15       -0.0177320903866047
   16        0.0000000000000000
   17        0.0000000000000001
   18       -0.1150959175223602
   19        0.0000000000000000
   20        0.0000000000000002
   21       -0.0846424772431121
   22        0.0000000000000000
   23        0.0000000000000002
   24       -0.5958541499996632
   25        0.0000000000000000
   26        0.0000000000000001
   27        1.7864880238557785
   28        0.0005740212591536
   29       -0.0000000000000000
   30       -0.0000000000000000
   31       -0.0000000000000000
   32        0.0000000000000000
   33       -0.0002311368443000
   34        0.0042229196807913
   35       -0.0216572790904647
   36        0.1130968840852968
   37        1.0169576844048702
   38        0.1081831370676869
   39       -0.0000000000000000
   40       -0.0000000000000000
   41        0.2743167640850764
Sym= A
 Ene=    1.1331751068903320
Spin= Alpha
Occup=  0.0000
    1       -0.0000000000000000
    2       -0.0000000000000000
    3       -0.0000000000000000
    4       -0.0000000000000000
    5       -0.0000000000000000
    6       -0.0000000000000000
    7        0.0000000000000000
    8        0.0000000000000001
    9        0.0000000000000001
   10        0.0000000153951639
   11       -0.0006088367404811
   12        0.0000000000000000
   13        0.0000000871218828
   14       -0.0034469202975638
   15        0.0000000000000000
   16        0.0000004558391607
   17       -0.0180571856904291
   18        0.0000000000000001
   19        0.0000005510469077
   20       -0.0217618935007815
   21        0.0000000000000002
   22        0.0000023960349070
   23       -0.0953393441438885
   24        0.0000000000000002
   25        0.0000136315026413
   26       -0.5420495130062662
   27        0.0000000000000001
   28       -0.0000000000000000
   29        0.0000010286018185
   30       -0.0409666659468366
   31        0.0000000000000000
   32        0.0000000000000000
   33       -0.0000000000000000
   34       -0.0000000000000000
   35       -0.0000000000000000
   36       -0.0000000000000001
   37       -0.0000000000000001
   38       -0.0000000000000001
   39       -0.0000289983084265
   40        1.1544024553618648
   41        0.0000000000000000
Sym= A
 Ene=    1.1331751068903873
Spin= Alpha
Occup=  0.0000
    1       -0.0000000000000000
    2       -0.0000000000000000
    3       -0.0000000000000000
    4       -0.0000000000000000
    5       -0.0000000000000000
    6       -0.0000000000000000
    7        0.0000000000000000
    8        0.0000000000000000
    9        0.0000000000000000
   10       -0.0006088367404733
   11       -0.0000000154108080
   12        0.0000000000000000
   13       -0.0034469202975136
   14       -0.0000000870515705
   15        0.0000000000000000
   16       -0.0180571856902176
   17       -0.0000004556383086
   18        0.0000000000000000
   19       -0.0217618935003893
   20       -0.0000005504581962
   21        0.0000000000000001
   22       -0.0953393441432301
   23       -0.0000023965213085
   24        0.0000000000000001
   25       -0.5420495130062147
   26       -0.0000136338676531
   27        0.0000000000000000
   28       -0.0000000000000000
   29       -0.0409666659468893
   30       -0.0000010176467889
   31        0.0000000000000000
   32        0.0000000000000000
   33       -0.0000000000000000
   34       -0.0000000000000000
   35       -0.0000000000000000
   36       -0.0000000000000000
   37       -0.0000000000000000
   38       -0.0000000000000000
   39        1.1544024553618952
   40        0.0000290021264412
   41        0.0000000000000000
Sym= A
 Ene=    1.2655765052099774
Spin= Alpha
Occup=  0.0000
    1       -0.0006714096206425
    2       -0.0022165771118304
    3       -0.0141907499937708
    4       -0.0242356255404553
    5       -0.1294165945050370
    6        0.0022311630130313
    7       -0.4055224835446392
    8        2.3173550110614425
    9       -3.2654401760559848
   10        0.0000000000000000
   11        0.0000000000000000
   12        0.0000609151813638
   13        0.0000000000000000
   14        0.0000000000000000
   15       -0.0037883265892643
   16        0.0000000000000000
   17        0.0000000000000001
   18        0.0076188405999853
   19        0.0000000000000001
   20        0.0000000000000003
   21       -0.0704464422795292
   22        0.0000000000000001
   23        0.0000000000000003
   24        0.1863501769213436
   25        0.0000000000000001
   26        0.0000000000000002
   27        0.8768998818555875
   28        0.0150052670383580
   29       -0.0000000000000000
   30       -0.0000000000000000
   31        0.0000000000000000
   32        0.0000000000000000
   33       -0.0002477781470780
   34        0.0063487273193974
   35       -0.0307729807150594
   36        0.4048791879755063
   37        0.9212541473273212
   38        0.5415259246316906
   39       -0.0000000000000000
   40       -0.0000000000000000
   41        0.3213421353083609
Sym= A
 Ene=    1.4818588019520267
Spin= Alpha
Occup=  0.0000
    1        0.0001896257991096
    2        0.0007153496624228
    3        0.0038255094745782
    4        0.0086688714258225
    5        0.0326319161530635
    6        0.0143200066024439
    7        0.0590354671663216
    8       -0.4327252830302723
    9        1.4360866652143456
   10        0.0000000000000000
   11        0.0000000000000000
   12        0.0022070728370376
   13        0.0000000000000000
   14        0.0000000000000000
   15        0.0174915165364735
   16        0.0000000000000000
   17        0.0000000000000001
   18        0.0595818191272592
   19        0.0000000000000001
   20        0.0000000000000003
   21        0.1535849812120138
   22        0.0000000000000001
   23        0.0000000000000003
   24        0.1300848475632378
   25        0.0000000000000001
   26        0.0000000000000002
   27       -0.9007970164245528
   28        0.0471604816098128
   29       -0.0000000000000000
   30       -0.0000000000000000
   31        0.0000000000000000
   32        0.0000000000000000
   33        0.0007896346254402
   34        0.0497348821894190
   35       -0.0891769693485760
   36        2.0390187471436017
   37       -3.7759159060776106
   38        1.0331329457989415
   39       -0.0000000000000000
   40       -0.0000000000000000
   41       -0.3437623125680263
Sym= A
 Ene=    1.8542458587458652
Spin= Alpha
Occup=  0.0000
    1       -0.0001412530172466
    2       -0.0004544851332117
    3       -0.0030118990274920
    4       -0.0048592256237919
    5       -0.0279581110635638
    6        0.0027380084183479
    7       -0.1005573956887713
    8        0.3824101814160454
    9        3.1669462867789577
   10       -0.0000000000000000
   11       -0.0000000000000000
   12       -0.0027627004579137
   13       -0.0000000000000000
   14       -0.0000000000000000
   15       -0.0094531738957594
   16       -0.0000000000000000
   17       -0.0000000000000001
   18       -0.0922705962773470
   19       -0.0000000000000000
   20       -0.0000000000000001
   21        0.0280368539869571
   22       -0.0000000000000000
   23       -0.0000000000000001
   24       -1.4354207500379219
   25       -0.0000000000000000
   26       -0.0000000000000001
   27       -0.9363754212947266
   28        0.0170927309230181
   29        0.0000000000000000
   30        0.0000000000000000
   31       -0.0000000000000000
   32        0.0000000000000000
   33       -0.0000978514043829
   34       -0.0073689026102342
   35        0.0247931812421436
   36       -0.1713530540076958
   37       -3.4711129077370271
   38        0.3063241681876662
   39        0.0000000000000000
   40        0.0000000000000000
   41       -2.5863172055750283
Sym= A
 Ene=    3.2574158509181457
Spin= Alpha
Occup=  0.0000
    1        0.0000000000000000
    2        0.0000000000000000
    3        0.0000000000000000
    4        0.0000000000000000
    5        0.0000000000000000
    6        0.0000000000000000
    7       -0.0000000000000000
    8       -0.0000000000000001
    9       -0.0000000000000000
   10       -0.0000000428748787
   11        0.0052252098820069
   12       -0.0000000000000000
   13       -0.0000006951933103
   14        0.0871075168943604
   15       -0.0000000000000000
   16       -0.0000007272957973
   17        0.0900465645872704
   18       -0.0000000000000000
   19       -0.0000101048442600
   20        1.2659612276669256
   21       -0.0000000000000001
   22        0.0000145032923317
   23       -1.8172769517362848
   24       -0.0000000000000001
   25       -0.0000056168463134
   26        0.7046025721365571
   27       -0.0000000000000001
   28        0.0000000000000000
   29        0.0000002407910900
   30       -0.0307334906211117
   31       -0.0000000000000000
   32        0.0000000000000000
   33        0.0000000000000000
   34        0.0000000000000000
   35        0.0000000000000000
   36        0.0000000000000000
   37        0.0000000000000001
   38        0.0000000000000000
   39       -0.0000005248033063
   40        0.0655197506004256
   41       -0.0000000000000000
Sym= A
 Ene=    3.2574158509182252
Spin= Alpha
Occup=  0.0000
    1        0.0000000000000000
    2        0.0000000000000000
    3        0.0000000000000000
    4        0.0000000000000000
    5        0.0000000000000000
    6        0.0000000000000000
    7       -0.0000000000000000
    8       -0.0000000000000000
    9       -0.0000000000000000
   10        0.0052252098820078
   11        0.0000000428758668
   12       -0.0000000000000000
   13        0.0871075168943704
   14        0.0000006951941343
   15       -0.0000000000000000
   16        0.0900465645872808
   17        0.0000007273125690
   18       -0.0000000000000000
   19        1.2659612276669818
   20        0.0000101048411100
   21       -0.0000000000000000
   22       -1.8172769517362344
   23       -0.0000145032753114
   24       -0.0000000000000000
   25        0.7046025721365460
   26        0.0000056167726181
   27       -0.0000000000000000
   28        0.0000000000000000
   29       -0.0307334906210300
   30       -0.0000002406104012
   31       -0.0000000000000000
   32        0.0000000000000000
   33        0.0000000000000000
   34        0.0000000000000000
   35        0.0000000000000000
   36        0.0000000000000000
   37        0.0000000000000000
   38        0.0000000000000000
   39        0.0655197506004695
   40        0.0000005248651128
   41       -0.0000000000000000
Sym= A
 Ene=    3.3721473478584447
Spin= Alpha
Occup=  0.0000
    1        0.0001090702165644
    2        0.0004793445898851
    3        0.0020695568262371
    4        0.0064381563814856
    5        0.0162663395569037
    6        0.0212401429916398
    7       -0.0175227949047447
    8       -0.2302512025881550
    9       -0.0519711017305933
   10       -0.0000000000000000
   11       -0.0000000000000000
   12       -0.0045742211971435
   13       -0.0000000000000000
   14       -0.0000000000000000
   15       -0.0833964961191762
   16       -0.0000000000000000
   17       -0.0000000000000000
   18       -0.0683660646274545
   19       -0.0000000000000000
   20       -0.0000000000000000
   21       -1.2639247224560795
   22       -0.0000000000000000
   23       -0.0000000000000000
   24        2.1104711832531846
   25       -0.0000000000000000
   26       -0.0000000000000000
   27       -0.8319130308959515