[Molden Format]
[GTO]
    1 0
 s  10 1.00
   20812.2193000    1.0000000000
    3045.2425200    0.0000000000
     682.9126870    0.0000000000
     191.2453230    0.0000000000
      61.5619638    0.0000000000
      21.6954416    0.0000000000
       8.0337275    0.0000000000
       2.2880670    0.0000000000
       0.8918916    0.0000000000
       0.3064906    0.0000000000
 s  10 1.00
   20812.2193000    0.0000000000
    3045.2425200    1.0000000000
     682.9126870    0.0000000000
     191.2453230    0.0000000000
      61.5619638    0.0000000000
      21.6954416    0.0000000000
       8.0337275    0.0000000000
       2.2880670    0.0000000000
       0.8918916    0.0000000000
       0.3064906    0.0000000000
 s  10 1.00
   20812.2193000    0.0000000000
    3045.2425200    0.0000000000
     682.9126870    1.0000000000
     191.2453230    0.0000000000
      61.5619638    0.0000000000
      21.6954416    0.0000000000
       8.0337275    0.0000000000
       2.2880670    0.0000000000
       0.8918916    0.0000000000
       0.3064906    0.0000000000
 s  10 1.00
   20812.2193000    0.0000000000
    3045.2425200    0.0000000000
     682.9126870    0.0000000000
     191.2453230    1.0000000000
      61.5619638    0.0000000000
      21.6954416    0.0000000000
       8.0337275    0.0000000000
       2.2880670    0.0000000000
       0.8918916    0.0000000000
       0.3064906    0.0000000000
 s  10 1.00
   20812.2193000    0.0000000000
    3045.2425200    0.0000000000
     682.9126870    0.0000000000
     191.2453230    0.0000000000
      61.5619638    1.0000000000
      21.6954416    0.0000000000
       8.0337275    0.0000000000
       2.2880670    0.0000000000
       0.8918916    0.0000000000
       0.3064906    0.0000000000
 s  10 1.00
   20812.2193000    0.0000000000
    3045.2425200    0.0000000000
     682.9126870    0.0000000000
     191.2453230    0.0000000000
      61.5619638    0.0000000000
      21.6954416    1.0000000000
       8.0337275    0.0000000000
       2.2880670    0.0000000000
       0.8918916    0.0000000000
       0.3064906    0.0000000000
 s  10 1.00
   20812.2193000    0.0000000000
    3045.2425200    0.0000000000
     682.9126870    0.0000000000
     191.2453230    0.0000000000
      61.5619638    0.0000000000
      21.6954416    0.0000000000
       8.0337275    1.0000000000
       2.2880670    0.0000000000
       0.8918916    0.0000000000
       0.3064906    0.0000000000
 s  10 1.00
   20812.2193000    0.0000000000
    3045.2425200    0.0000000000
     682.9126870    0.0000000000
     191.2453230    0.0000000000
      61.5619638    0.0000000000
      21.6954416    0.0000000000
       8.0337275    0.0000000000
       2.2880670    1.0000000000
       0.8918916    0.0000000000
       0.3064906    0.0000000000
 s  10 1.00
   20812.2193000    0.0000000000
    3045.2425200    0.0000000000
     682.9126870    0.0000000000
     191.2453230    0.0000000000
      61.5619638    0.0000000000
      21.6954416    0.0000000000
       8.0337275    0.0000000000
       2.2880670    0.0000000000
       0.8918916    1.0000000000
       0.3064906    0.0000000000
 s  10 1.00
   20812.2193000    0.0000000000
    3045.2425200    0.0000000000
     682.9126870    0.0000000000
     191.2453230    0.0000000000
      61.5619638    0.0000000000
      21.6954416    0.0000000000
       8.0337275    0.0000000000
       2.2880670    0.0000000000
       0.8918916    0.0000000000
       0.3064906    1.0000000000
 p   6 1.00
      81.2382078    1.0000000000
      18.7382214    0.0000000000
       5.7166582    0.0000000000
       1.9595904    0.0000000000
       0.6723315    0.0000000000
       0.2172270    0.0000000000
 p   6 1.00
      81.2382078    0.0000000000
      18.7382214    1.0000000000
       5.7166582    0.0000000000
       1.9595904    0.0000000000
       0.6723315    0.0000000000
       0.2172270    0.0000000000
 p   6 1.00
      81.2382078    0.0000000000
      18.7382214    0.0000000000
       5.7166582    1.0000000000
       1.9595904    0.0000000000
       0.6723315    0.0000000000
       0.2172270    0.0000000000
 p   6 1.00
      81.2382078    0.0000000000
      18.7382214    0.0000000000
       5.7166582    0.0000000000
       1.9595904    1.0000000000
       0.6723315    0.0000000000
       0.2172270    0.0000000000
 p   6 1.00
      81.2382078    0.0000000000
      18.7382214    0.0000000000
       5.7166582    0.0000000000
       1.9595904    0.0000000000
       0.6723315    1.0000000000
       0.2172270    0.0000000000
 p   6 1.00
      81.2382078    0.0000000000
      18.7382214    0.0000000000
       5.7166582    0.0000000000
       1.9595904    0.0000000000
       0.6723315    0.0000000000
       0.2172270    1.0000000000
 d   1 1.00
       1.6181196    1.0000000000

    2 0
 s   6 1.00
      82.9687389    1.0000000000
      12.4571508    0.0000000000
       2.8338242    0.0000000000
       0.8001641    0.0000000000
       0.2586294    0.0000000000
       0.0899767    0.0000000000
 s   6 1.00
      82.9687389    0.0000000000
      12.4571508    1.0000000000
       2.8338242    0.0000000000
       0.8001641    0.0000000000
       0.2586294    0.0000000000
       0.0899767    0.0000000000
 s   6 1.00
      82.9687389    0.0000000000
      12.4571508    0.0000000000
       2.8338242    1.0000000000
       0.8001641    0.0000000000
       0.2586294    0.0000000000
       0.0899767    0.0000000000
 s   6 1.00
      82.9687389    0.0000000000
      12.4571508    0.0000000000
       2.8338242    0.0000000000
       0.8001641    1.0000000000
       0.2586294    0.0000000000
       0.0899767    0.0000000000
 s   6 1.00
      82.9687389    0.0000000000
      12.4571508    0.0000000000
       2.8338242    0.0000000000
       0.8001641    0.0000000000
       0.2586294    1.0000000000
       0.0899767    0.0000000000
 s   6 1.00
      82.9687389    0.0000000000
      12.4571508    0.0000000000
       2.8338242    0.0000000000
       0.8001641    0.0000000000
       0.2586294    0.0000000000
       0.0899767    1.0000000000
 p   1 1.00
       0.5024489    1.0000000000

[SCFCONV]
scf-first  1  THROUGH   9
      -99.9498546212
     -100.0542127148
     -100.0591862129
     -100.0598390989
     -100.0599535684
     -100.0599608600
     -100.0599611197
     -100.0599611267
     -100.0599611268
[TITLE]
*** Dalton interface to Molden, wave function type : HF            30Nov22   17:
[Atoms] AU
F          1     9         0.0000000000         0.0000000000         0.000000000
H          2     1         0.0000000000         0.0000000000         1.732878764
[5D7F]
[9G]
[MO]
Sym= A
 Ene=   -26.289935326925836
Spin= Alpha
Occup=  2.0000
           1  -4.7246560809676222E-004
           2  -3.7696971924962505E-003
           3  -1.9677586393542588E-002
           4  -7.7635562570971359E-002
           5 -0.22788859538288508
           6 -0.43187530893464648
           7 -0.35397174512892943
           8  -4.5371236356869182E-002
           9   8.8265143023790356E-003
          10  -3.1951891415885531E-003
          11  -2.1920086546641616E-019
          12   2.8836202359836412E-020
          13  -3.2487715381401913E-005
          14  -2.0500064853897157E-018
          15   2.6968142541725749E-019
          16  -4.8156757580034650E-004
          17  -6.8248712868122492E-018
          18   8.9782204594680090E-019
          19  -5.9202012675886172E-004
          20  -1.6479346086730961E-017
          21   2.1678826746584639E-018
          22  -1.7978494190448407E-004
          23  -1.6709731407296569E-017
          24   2.1981902088482979E-018
          25   4.0082761572774654E-004
          26  -1.2586612386841895E-017
          27   1.6557877225508889E-018
          28  -4.8807647458009050E-004
          29   1.2805179301025521E-004
          30  -1.6677884904328840E-020
          31   2.1940007536572460E-021
          32   0.0000000000000000
          33   0.0000000000000000
          34  -9.6483392293980749E-007
          35   1.4877120708252080E-006
          36  -1.2663460246650754E-004
          37  -2.8615133386946924E-004
          38   3.9974142198777020E-004
          39   3.3639580961217463E-004
          40   7.5705344106675064E-020
          41  -9.9591514738615868E-021
          42   2.5835444169367938E-004
Sym= A
 Ene=   -1.5987086257566210
Spin= Alpha
Occup=  2.0000
           1   1.0367921444723572E-004
           2   8.3229963854362520E-004
           3   4.3557932393688522E-003
           4   1.7811380175904362E-002
           5   5.5748273229465573E-002
           6  0.13220123997283695
           7  0.16677426537771634
           8 -0.14418686205727352
           9 -0.57688220958574565
          10 -0.31880063495413680
          11   1.8826829279660788E-018
          12   9.0542434027657843E-019
          13  -5.5102687674139208E-004
          14   1.7607194223667140E-017
          15   8.4676936181220946E-018
          16  -4.1641889185158312E-003
          17   5.8617782506960178E-017
          18   2.8190603030632481E-017
          19  -1.3225848018617977E-002
          20   1.4153859965615691E-016
          21   6.8069079138990204E-017
          22  -3.6074432036383962E-002
          23   1.4351734416959659E-016
          24   6.9020701644852956E-017
          25  -4.5670668569248368E-002
          26   1.0810450137235017E-016
          27   5.1989873271827857E-017
          28   6.1201358961092299E-003
          29  -1.1585599416581471E-002
          30   1.4324381939443479E-019
          31   6.8889157461087893E-020
          32   0.0000000000000000
          33   0.0000000000000000
          34  -8.4515096728290538E-004
          35  -5.7407203176170060E-003
          36  -3.0666414338898884E-002
          37  -7.5481759039212240E-002
          38  -5.3238434221608802E-002
          39  -5.0353755000150675E-003
          40  -6.5022169781209416E-019
          41  -3.1270616152614696E-019
          42   2.4706109701219000E-002
Sym= A
 Ene=  -0.76541236565314064
Spin= Alpha
Occup=  2.0000
           1   2.5343821351986361E-005
           2   2.0072625782223145E-004
           3   1.0720683455144831E-003
           4   4.2706842319331422E-003
           5   1.3922265942003187E-002
           6   3.1542191911168957E-002
           7   4.4880901570307087E-002
           8  -5.4527834042970756E-002
           9 -0.12124267346493077
          10 -0.25028603527252924
          11   2.1891436643810356E-017
          12   1.6712472949205693E-017
          13   5.0769400783465136E-003
          14   2.0473270942073328E-016
          15   1.5629809608586387E-016
          16   3.6324135943645031E-002
          17   6.8159510711559672E-016
          18   5.2034683585746650E-016
          19  0.13383283691897116
          20   1.6457807318482959E-015
          21   1.2564303754416709E-015
          22  0.29862110535622155
          23   1.6687891521759062E-015
          24   1.2739955818091456E-015
          25  0.34374053706752200
          26   1.2570161483644618E-015
          27   9.5963772127293551E-016
          28  0.14675274347938508
          29   2.2889044632157497E-002
          30   1.6656086642680251E-018
          31   1.2715675174032603E-018
          32   0.0000000000000000
          33   0.0000000000000000
          34   1.4345517059696621E-003
          35   1.0505227049169551E-002
          36   5.2651630929382694E-002
          37  0.17263345028283328
          38  0.21823280040577711
          39  -3.7936867281270657E-003
          40  -7.5606396014112922E-018
          41  -5.7719822994363949E-018
          42  -4.4206617206001268E-002
Sym= A
 Ene=  -0.64667750309886074
Spin= Alpha
Occup=  2.0000
           1  -2.0216450815502248E-019
           2  -3.5209709884955999E-019
           3  -5.6544540667847781E-018
           4  -1.3275876580627554E-017
           5  -6.2700415600861288E-017
           6  -1.1066061641622226E-016
           7  -1.8688749794052707E-016
           8   1.9803770654313085E-016
           9   4.8672663903616377E-016
          10   3.5994479551755755E-016
          11   5.2497468265829527E-003
          12  -2.9539071706158747E-003
          13  -9.2497993231642642E-018
          14   3.6942517264312066E-002
          15  -2.0786673605268702E-002
          16  -8.1896774040504289E-017
          17  0.14039647451138140
          18  -7.8997748029839526E-002
          19  -2.8089516246055614E-016
          20  0.30171433854525914
          21 -0.16976746315010394
          22  -6.6091066369317194E-016
          23  0.37282991706503699
          24 -0.20978250278681559
          25  -6.9810274541802355E-016
          26  0.23127047150467822
          27 -0.13013037885108797
          28  -5.0995867581235540E-016
          29  -3.2552342963801695E-018
          30   1.0903701169144644E-002
          31  -6.1352525524101609E-003
          32   0.0000000000000000
          33   0.0000000000000000
          34  -1.6691895203938232E-018
          35  -1.2760190045770084E-017
          36  -6.7299100323634925E-017
          37  -1.9715334240516198E-016
          38  -2.8580125452619693E-016
          39  -2.0726128393215642E-016
          40   3.6069942124451478E-002
          41  -2.0295696142519470E-002
          42  -1.2450853419477149E-017
Sym= A
 Ene=  -0.64667750309279204
Spin= Alpha
Occup=  2.0000
           1  -3.9705871426573546E-019
           2  -4.1087305523865653E-019
           3  -1.0487041202150853E-017
           4  -2.1566227247500138E-017
           5  -1.1496104399795413E-016
           6  -1.9771119759462958E-016
           7  -3.6797384739557433E-016
           8   4.2473003465780909E-016
           9   1.0160652632302245E-015
          10   7.5909978803798301E-016
          11   2.9539071705906492E-003
          12   5.2497468264998629E-003
          13  -2.1659980917260314E-017
          14   2.0786673605225275E-002
          15   3.6942517263372068E-002
          16  -1.9173032495898010E-016
          17   7.8997748029683484E-002
          18  0.14039647450869136
          19  -6.5769707730333584E-016
          20  0.16976746314987251
          21  0.30171433853903673
          22  -1.5473022677498749E-015
          23  0.20978250278579397
          24  0.37282991705389124
          25  -1.6345369526102777E-015
          26  0.13013037885280332
          27  0.23127047153011696
          28  -1.1939590337017761E-015
          29  -7.5843582868506144E-018
          30   6.1352525524285611E-003
          31   1.0903701168239920E-002
          32   0.0000000000000000
          33   0.0000000000000000
          34  -3.9044530613383058E-018
          35  -2.9972851010582652E-017
          36  -1.5738841475220444E-016
          37  -4.6297345814389694E-016
          38  -6.6908296991136820E-016
          39  -4.8667118620715663E-016
          40   2.0295696142667241E-002
          41   3.6069942124294638E-002
          42  -2.9201665457132298E-017
Sym= A
 Ene=   0.12219708238700816
Spin= Alpha
Occup=  0.0000
           1  -2.2232524339604741E-005
           2  -1.6727537155017882E-004
           3  -9.6237931186504710E-004
           4  -3.4562834023593660E-003
           5  -1.2935621204225516E-002
           6  -2.3744259302831867E-002
           7  -4.8100997410084154E-002
           8   8.2885019524398404E-002
           9  -1.1771139731610815E-002
          10  0.54194235998253726
          11  -1.9535758038902539E-018
          12  -1.4954162351534189E-018
          13   1.4204405319428975E-003
          14  -1.8270197333181119E-017
          15  -1.3985405458590635E-017
          16   1.0253638568028575E-002
          17  -6.0825049126573685E-017
          18  -4.6560141555169027E-017
          19   3.7803780995660015E-002
          20  -1.4686826947726807E-016
          21  -1.1242419882957316E-016
          22   8.4792839408071571E-002
          23  -1.4892152408860771E-016
          24  -1.1399591684255516E-016
          25  0.10958518704820823
          26  -1.1217520222632350E-016
          27  -8.5867473510278719E-017
          28  0.10715528004448092
          29   7.8755776640434642E-003
          30  -1.4863769967258249E-019
          31  -1.1377865594144599E-019
          32   0.0000000000000000
          33   0.0000000000000000
          34  -1.4472610944415659E-005
          35  -4.9252851330084503E-003
          36   1.2493222007306707E-002
          37 -0.14632083424644615
          38  0.31938594984539004
          39  -1.4210573699003202
          40   6.7470595135332353E-019
          41   5.1647150399761355E-019
          42  -3.4651708428642257E-002
Sym= A
 Ene=   0.48022607069340784
Spin= Alpha
Occup=  0.0000
           1  -1.9133561194262618E-005
           2  -1.4843866972636996E-004
           3  -8.1718360930819653E-004
           4  -3.1229361601716535E-003
           5  -1.0779732550088805E-002
           6  -2.2467144128418819E-002
           7  -3.7787695434997666E-002
           8   5.8814503895508900E-002
           9   2.5252342049555548E-002
          10  0.91402859718956475
          11   7.6029210269875700E-019
          12   6.0141590913738067E-019
          13   2.5476375870518262E-003
          14   7.1103904540094396E-018
          15   5.6245513060582459E-018
          16   1.6867296737928396E-002
          17   2.3671876159147240E-017
          18   1.8725227936350057E-017
          19   7.0366719012569301E-002
          20   5.7158153370980833E-017
          21   4.5213967963367978E-017
          22  0.13454638398650873
          23   5.7957238444988657E-017
          24   4.5846070381053116E-017
          25  0.24459880557978933
          26   4.3656314846586776E-017
          27   3.4533572280773392E-017
          28  0.97903737065312191
          29  -2.1465273941973558E-002
          30   5.7846779735594233E-020
          31   4.5758693930762759E-020
          32   0.0000000000000000
          33   0.0000000000000000
          34  -2.0293562780702187E-003
          35  -2.8517508427531582E-003
          36 -0.11195464449493420
          37  0.13258929175809733
          38  -2.8447791716417203
          39   1.3222695892110545
          40  -2.6258187956455589E-019
          41  -2.0771085121200386E-019
          42   2.4857893361410126E-002
Sym= A
 Ene=   0.69498929851707791
Spin= Alpha
Occup=  0.0000
           1  -3.1525310486844101E-021
           2  -4.3208789523813328E-021
           3  -8.5597167806335984E-020
           4  -1.8823445475852652E-019
           5  -9.4363152992184866E-019
           6  -1.6438169759399857E-018
           7  -2.9181362489854620E-018
           8   3.2372816701200693E-018
           9   7.8405023403841912E-018
          10   5.8303010481193219E-018
          11   4.4673131048033766E-003
          12  -4.3200800951678067E-007
          13  -1.5879801538385983E-019
          14   2.0225330840254706E-002
          15  -1.9554578935360031E-006
          16  -1.4057941085671975E-018
          17  0.13673481546204461
          18  -1.3224850435736185E-005
          19  -4.8220526391495455E-018
          20   8.7398693274098591E-002
          21  -8.4429124813635312E-006
          22  -1.1344946489654562E-017
          23  0.78486165955792198
          24  -7.5874852328830302E-005
          25  -1.1984046282928726E-017
          26  -1.2763121337384868
          27   1.2333045259068794E-004
          28  -8.7540133435708425E-018
          29  -5.5725234123103303E-020
          30   4.9714893356781727E-003
          31  -4.7912422227552858E-007
          32   0.0000000000000000
          33   0.0000000000000000
          34  -2.8638522636488445E-020
          35  -2.1944974692105306E-019
          36  -1.1545227232097085E-018
          37  -3.3901145551244353E-018
          38  -4.9058516573219017E-018
          39  -3.5637627017754025E-018
          40  -1.1557811437349880E-002
          41   1.2014054552871190E-006
          42  -2.1394400713067809E-019
Sym= A
 Ene=   0.69498929851971680
Spin= Alpha
Occup=  0.0000
           1   2.0990590405807111E-021
           2   1.5765379532750024E-021
           3   5.4127475840454213E-020
           4   1.0444424369653888E-019
           5   5.9037569877041914E-019
           6   1.0035490563829585E-018
           7   1.9472529954221476E-018
           8  -2.3212608712488487E-018
           9  -5.4990140142641404E-018
          10  -4.1236673925906254E-018
          11  -4.3201022153848544E-007
          12  -4.4673131049088642E-003
          13   1.2191804421940374E-019
          14  -1.9552972762132871E-006
          15  -2.0225330840925294E-002
          16   1.0791170378089215E-018
          17  -1.3225054607046750E-005
          18 -0.13673481546479760
          19   3.7018761266635418E-018
          20  -8.4427877756104593E-006
          21  -8.7398693279118658E-002
          22   8.7087446494578132E-018
          23  -7.5874860602220427E-005
          24 -0.78486165956759091
          25   9.2000192390451231E-018
          26   1.2333066836899104E-004
          27   1.2763121337342858
          28   6.7201163230984649E-018
          29   4.2622041981696140E-020
          30  -4.7880215997448639E-007
          31  -4.9714893357478557E-003
          32   0.0000000000000000
          33   0.0000000000000000
          34   2.1969543138774357E-020
          35   1.6887386254929780E-019
          36   8.8553298905304183E-019
          37   2.6082727669680349E-018
          38   3.7657816389555329E-018
          39   2.7417110245619919E-018
          40   1.2009536679905519E-006
          41   1.1557811436948728E-002
          42   1.6444974137131498E-019
Sym= A
 Ene=   0.70286242948255240
Spin= Alpha
Occup=  0.0000
           1   1.6463205144061377E-005
           2   1.3744479540956302E-004
           3   6.7915413928966255E-004
           4   3.0103308618682021E-003
           5   8.5035502476148560E-003
           6   2.3902970982183924E-002
           7   2.3213401397283614E-002
           8  -9.2700691311904272E-003
           9 -0.14382215171998872
          10 -0.69889211421105857
          11  -6.4977614730677274E-019
          12  -5.0337759632539778E-019
          13   3.7957497805238289E-003
          14  -6.0768250763803193E-018
          15  -4.7076791182884935E-018
          16   1.7732085310135877E-002
          17  -2.0230935499154960E-017
          18  -1.5672781657478140E-017
          19  0.11510000483667870
          20  -4.8849652064958411E-017
          21  -3.7843525866113279E-017
          22   8.4650153381479035E-002
          23  -4.9532582242604595E-017
          24  -3.8372587686411694E-017
          25  0.59589022622493570
          26  -3.7310438929904368E-017
          27  -2.8904168218890792E-017
          28  -1.7863484762641808
          29   5.7091918256117139E-004
          30  -4.9438179795970069E-020
          31  -3.8299454690071181E-020
          32   0.0000000000000000
          33   0.0000000000000000
          34  -2.3127009806871350E-004
          35   4.2231831615205983E-003
          36  -2.1665738466848460E-002
          37  0.11311279542725999
          38   1.0166389507529816
          39  0.10824312910203085
          40   2.2441301369685164E-019
          41   1.7385138541483142E-019
          42 -0.27431306925987281
Sym= A
 Ene=    1.1331830137133219
Spin= Alpha
Occup=  0.0000
           1   1.0411204740481670E-020
           2   7.8253483778343488E-021
           3   2.6848179502144386E-019
           4   5.1813049996206091E-019
           5   2.9283970602490788E-018
           6   4.9779488939197419E-018
           7   9.6582369599134095E-018
           8  -1.1512570831835700E-017
           9  -2.7273528085644383E-017
          10  -2.0452057762499026E-017
          11  -4.2533543408329132E-007
          12  -6.0884461455998394E-004
          13   6.0463366987570835E-019
          14  -2.4072903208704245E-006
          15  -3.4467635815502808E-003
          16   5.3517146570793829E-018
          17  -1.2616881102886665E-005
          18  -1.8057963072650226E-002
          19   1.8358882765743917E-017
          20  -1.5191527889592178E-005
          21  -2.1761024476466509E-002
          22   4.3189676583334823E-017
          23  -6.6610239581497125E-005
          24  -9.5350281162951328E-002
          25   4.5626074535157875E-017
          26  -3.7823108418793460E-004
          27 -0.54203456344185341
          28   3.3327379968490789E-017
          29   2.1137804588418704E-019
          30   2.8599785892092880E-005
          31   4.0966314564732181E-002
          32   0.0000000000000000
          33   0.0000000000000000
          34   1.0895461795336080E-019
          35   8.3750226987407567E-019
          36   4.3916671253465853E-018
          37   1.2935303770885418E-017
          38   1.8675813936946730E-017
          39   1.3597069694550829E-017
          40   8.0573945173548363E-004
          41   1.1544025516375551
          42   8.1556229002149442E-019
Sym= A
 Ene=    1.1331830137134717
Spin= Alpha
Occup=  0.0000
           1   1.5616010729745825E-020
           2   2.1407275580366977E-020
           3   4.2401269845761447E-019
           4   9.3247848315599500E-019
           5   4.6743762135354793E-018
           6   8.1428912433380451E-018
           7   1.4454927250894283E-017
           8  -1.6035327872288012E-017
           9  -3.8836969947400268E-017
          10  -2.8879580742220899E-017
          11  -6.0884461470527235E-004
          12   4.2533441326528509E-007
          13   7.8655515989635883E-019
          14  -3.4467635816903073E-003
          15   2.4072904945671299E-006
          16   6.9631518793799694E-018
          17  -1.8057963079643764E-002
          18   1.2616836295206816E-005
          19   2.3884495712443013E-017
          20  -2.1761024467998796E-002
          21   1.5191609341063789E-005
          22   5.6193566655850983E-017
          23  -9.5350281167792442E-002
          24   6.6609871317717560E-005
          25   5.9359141200846212E-017
          26 -0.54203456344052037
          27   3.7823151223919234E-004
          28   4.3360206604824961E-017
          29   2.7601759766234983E-019
          30   4.0966314564529087E-002
          31  -2.8599765786067667E-005
          32   0.0000000000000000
          33   0.0000000000000000
          34   1.4185181176930969E-019
          35   1.0869729440560856E-018
          36   5.7185614617491570E-018
          37   1.6791831381075859E-017
          38   2.4299568621913246E-017
          39   1.7651941560520661E-017
          40   1.1544025516377037
          41  -8.0573945011155066E-004
          42   1.0597026104696333E-018
Sym= A
 Ene=    1.2654747640567228
Spin= Alpha
Occup=  0.0000
           1   6.1160733257434593E-005
           2   5.9878696139733113E-004
           3   2.3038958973692096E-003
           4   1.4099096326637705E-002
           5   2.4346682316441680E-002
           6  0.12930571192700491
           7  -2.1695037106547166E-003
           8  0.40534157967450168
           9  -2.3171563856125288
          10   3.2655778787822003
          11   1.0468888976725084E-018
          12   8.0204774179601591E-019
          13   6.0383835141110544E-005
          14   9.7906959680315245E-018
          15   7.5008968088497318E-018
          16  -3.7909628374533607E-003
          17   3.2595135803888043E-017
          18   2.4971947952803737E-017
          19   7.6023333441405608E-003
          20   7.8704271638673750E-017
          21   6.0297308986509601E-017
          22  -7.0459578754765412E-002
          23   7.9804576757331005E-017
          24   6.1140280229846142E-017
          25  0.18625550370434962
          26   6.0112831849701292E-017
          27   4.6053942443379246E-017
          28  0.87712744650682894
          29  -1.4998109901571700E-002
          30   7.9652479956461994E-020
          31   6.1023755070373484E-020
          32   0.0000000000000000
          33   0.0000000000000000
          34   2.4784602481332059E-004
          35  -6.3421549129626638E-003
          36   3.0760011466483068E-002
          37 -0.40460359954508929
          38 -0.92182227441846198
          39 -0.54138293107695201
          40  -3.6156373776695661E-019
          41  -2.7700301343929311E-019
          42  0.32133381529234495
Sym= A
 Ene=    1.4818637326659134
Spin= Alpha
Occup=  0.0000
           1   1.8669908351712082E-005
           2   1.6735837145665698E-004
           3   7.4168239108856953E-004
           4   3.7954356915944590E-003
           5   8.6992989583035175E-003
           6   3.2578837987580191E-002
           7   1.4339886869940694E-002
           8   5.8916921682923555E-002
           9 -0.43231824203679736
          10   1.4356124042659937
          11  -1.1867435915730138E-018
          12  -9.3299848625374236E-019
          13  -2.2070243662801895E-003
          14  -1.1098642580825502E-017
          15  -8.7255720619955607E-018
          16  -1.7489904649421743E-002
          17  -3.6949545092814438E-017
          18  -2.9049130649750759E-017
          19  -5.9583370419975544E-002
          20  -8.9218435885866881E-017
          21  -7.0142081422242860E-017
          22 -0.15356914895737722
          23  -9.0465731612516541E-017
          24  -7.1122685011035851E-017
          25 -0.13014288315166067
          26  -6.8143351340859295E-017
          27  -5.3573193148661401E-017
          28  0.90070237088377925
          29   4.7163284681485715E-002
          30  -9.0293316083085764E-020
          31  -7.0987134729523658E-020
          32   0.0000000000000000
          33   0.0000000000000000
          34   7.8958353897133431E-004
          35   4.9735726464800990E-002
          36  -8.9181963818345880E-002
          37   2.0390754703404208
          38  -3.7757930996327063
          39   1.0332032811145262
          40   4.0986531588422129E-019
          41   3.2222943692584733E-019
          42  0.34370977095628180
Sym= A
 Ene=    1.8542536302432011
Spin= Alpha
Occup=  0.0000
           1  -1.2677975416809685E-005
           2  -1.2617852182496519E-004