[Molden Format]
[GTO]
    1 0
 s  10 1.00
   20812.2193000    1.0000000000
    3045.2425200    0.0000000000
     682.9126870    0.0000000000
     191.2453230    0.0000000000
      61.5619638    0.0000000000
      21.6954416    0.0000000000
       8.0337275    0.0000000000
       2.2880670    0.0000000000
       0.8918916    0.0000000000
       0.3064906    0.0000000000
 s  10 1.00
   20812.2193000    0.0000000000
    3045.2425200    1.0000000000
     682.9126870    0.0000000000
     191.2453230    0.0000000000
      61.5619638    0.0000000000
      21.6954416    0.0000000000
       8.0337275    0.0000000000
       2.2880670    0.0000000000
       0.8918916    0.0000000000
       0.3064906    0.0000000000
 s  10 1.00
   20812.2193000    0.0000000000
    3045.2425200    0.0000000000
     682.9126870    1.0000000000
     191.2453230    0.0000000000
      61.5619638    0.0000000000
      21.6954416    0.0000000000
       8.0337275    0.0000000000
       2.2880670    0.0000000000
       0.8918916    0.0000000000
       0.3064906    0.0000000000
 s  10 1.00
   20812.2193000    0.0000000000
    3045.2425200    0.0000000000
     682.9126870    0.0000000000
     191.2453230    1.0000000000
      61.5619638    0.0000000000
      21.6954416    0.0000000000
       8.0337275    0.0000000000
       2.2880670    0.0000000000
       0.8918916    0.0000000000
       0.3064906    0.0000000000
 s  10 1.00
   20812.2193000    0.0000000000
    3045.2425200    0.0000000000
     682.9126870    0.0000000000
     191.2453230    0.0000000000
      61.5619638    1.0000000000
      21.6954416    0.0000000000
       8.0337275    0.0000000000
       2.2880670    0.0000000000
       0.8918916    0.0000000000
       0.3064906    0.0000000000
 s  10 1.00
   20812.2193000    0.0000000000
    3045.2425200    0.0000000000
     682.9126870    0.0000000000
     191.2453230    0.0000000000
      61.5619638    0.0000000000
      21.6954416    1.0000000000
       8.0337275    0.0000000000
       2.2880670    0.0000000000
       0.8918916    0.0000000000
       0.3064906    0.0000000000
 s  10 1.00
   20812.2193000    0.0000000000
    3045.2425200    0.0000000000
     682.9126870    0.0000000000
     191.2453230    0.0000000000
      61.5619638    0.0000000000
      21.6954416    0.0000000000
       8.0337275    1.0000000000
       2.2880670    0.0000000000
       0.8918916    0.0000000000
       0.3064906    0.0000000000
 s  10 1.00
   20812.2193000    0.0000000000
    3045.2425200    0.0000000000
     682.9126870    0.0000000000
     191.2453230    0.0000000000
      61.5619638    0.0000000000
      21.6954416    0.0000000000
       8.0337275    0.0000000000
       2.2880670    1.0000000000
       0.8918916    0.0000000000
       0.3064906    0.0000000000
 s  10 1.00
   20812.2193000    0.0000000000
    3045.2425200    0.0000000000
     682.9126870    0.0000000000
     191.2453230    0.0000000000
      61.5619638    0.0000000000
      21.6954416    0.0000000000
       8.0337275    0.0000000000
       2.2880670    0.0000000000
       0.8918916    1.0000000000
       0.3064906    0.0000000000
 s  10 1.00
   20812.2193000    0.0000000000
    3045.2425200    0.0000000000
     682.9126870    0.0000000000
     191.2453230    0.0000000000
      61.5619638    0.0000000000
      21.6954416    0.0000000000
       8.0337275    0.0000000000
       2.2880670    0.0000000000
       0.8918916    0.0000000000
       0.3064906    1.0000000000
 p   6 1.00
      81.2382078    1.0000000000
      18.7382214    0.0000000000
       5.7166582    0.0000000000
       1.9595904    0.0000000000
       0.6723315    0.0000000000
       0.2172270    0.0000000000
 p   6 1.00
      81.2382078    0.0000000000
      18.7382214    1.0000000000
       5.7166582    0.0000000000
       1.9595904    0.0000000000
       0.6723315    0.0000000000
       0.2172270    0.0000000000
 p   6 1.00
      81.2382078    0.0000000000
      18.7382214    0.0000000000
       5.7166582    1.0000000000
       1.9595904    0.0000000000
       0.6723315    0.0000000000
       0.2172270    0.0000000000
 p   6 1.00
      81.2382078    0.0000000000
      18.7382214    0.0000000000
       5.7166582    0.0000000000
       1.9595904    1.0000000000
       0.6723315    0.0000000000
       0.2172270    0.0000000000
 p   6 1.00
      81.2382078    0.0000000000
      18.7382214    0.0000000000
       5.7166582    0.0000000000
       1.9595904    0.0000000000
       0.6723315    1.0000000000
       0.2172270    0.0000000000
 p   6 1.00
      81.2382078    0.0000000000
      18.7382214    0.0000000000
       5.7166582    0.0000000000
       1.9595904    0.0000000000
       0.6723315    0.0000000000
       0.2172270    1.0000000000
 d   1 1.00
       1.6181196    1.0000000000

    2 0
 s   6 1.00
      82.9687389    1.0000000000
      12.4571508    0.0000000000
       2.8338242    0.0000000000
       0.8001641    0.0000000000
       0.2586294    0.0000000000
       0.0899767    0.0000000000
 s   6 1.00
      82.9687389    0.0000000000
      12.4571508    1.0000000000
       2.8338242    0.0000000000
       0.8001641    0.0000000000
       0.2586294    0.0000000000
       0.0899767    0.0000000000
 s   6 1.00
      82.9687389    0.0000000000
      12.4571508    0.0000000000
       2.8338242    1.0000000000
       0.8001641    0.0000000000
       0.2586294    0.0000000000
       0.0899767    0.0000000000
 s   6 1.00
      82.9687389    0.0000000000
      12.4571508    0.0000000000
       2.8338242    0.0000000000
       0.8001641    1.0000000000
       0.2586294    0.0000000000
       0.0899767    0.0000000000
 s   6 1.00
      82.9687389    0.0000000000
      12.4571508    0.0000000000
       2.8338242    0.0000000000
       0.8001641    0.0000000000
       0.2586294    1.0000000000
       0.0899767    0.0000000000
 s   6 1.00
      82.9687389    0.0000000000
      12.4571508    0.0000000000
       2.8338242    0.0000000000
       0.8001641    0.0000000000
       0.2586294    0.0000000000
       0.0899767    1.0000000000
 p   1 1.00
       0.5024489    1.0000000000

*** Dalton interface to Molden, wave function type :
HF          26Jul22   01:33:28
[Atoms] AU
F          1     9         0.0000000000         0.0000000000         0.087294744
H          2     1         0.0000000000         0.0000000000        -1.645584019
[5D7F]
[9G]
[MO]
Sym= A
 Ene=   -26.289935313836324
Spin= Alpha
Occup=  2.0000
    1       -0.0004724656080793
    2       -0.0037696971924495
    3       -0.0196775863922471
    4       -0.0776355625716904
    5       -0.2278885953582840
    6       -0.4318753089265226
    7       -0.3539717452194822
    8       -0.0453712360332870
    9        0.0088265138718851
   10       -0.0031951890043297
   11        0.0000000000000000
   12       -0.0000000000000000
   13        0.0000324869033614
   14        0.0000000000000000
   15       -0.0000000000000000
   16        0.0004815683137671
   17        0.0000000000000000
   18       -0.0000000000000000
   19        0.0005920197416204
   20        0.0000000000000000
   21       -0.0000000000000001
   22        0.0001797851848933
   23        0.0000000000000000
   24       -0.0000000000000001
   25       -0.0004008277172024
   26        0.0000000000000000
   27       -0.0000000000000001
   28        0.0004880764706672
   29        0.0001280517808642
   30       -0.0000000000000000
   31        0.0000000000000000
   32        0.0000000000000000
   33        0.0000000000000000
   34       -0.0000009648280417
   35        0.0000014877430359
   36       -0.0001266345855747
   37       -0.0002861513911405
   38        0.0003997413780290
   39        0.0003363957847017
   40       -0.0000000000000000
   41        0.0000000000000000
   42       -0.0002583544696416
Sym= A
 Ene=   -1.5987086167265341
Spin= Alpha
Occup=  2.0000
    1       -0.0001036792140823
    2       -0.0008322996184486
    3       -0.0043557932247680
    4       -0.0178113800901678
    5       -0.0557482727473064
    6       -0.1322012395950984
    7       -0.1667742626765657
    8        0.1441868520535142
    9        0.5768822195784524
   10        0.3188006189493062
   11        0.0000000000000000
   12        0.0000000000000000
   13       -0.0005510268668377
   14        0.0000000000000000
   15        0.0000000000000000
   16       -0.0041641887125137
   17        0.0000000000000000
   18        0.0000000000000000
   19       -0.0132258472605432
   20        0.0000000000000001
   21        0.0000000000000000
   22       -0.0360744307239744
   23        0.0000000000000001
   24        0.0000000000000000
   25       -0.0456706663269558
   26        0.0000000000000001
   27        0.0000000000000000
   28        0.0061201455290997
   29        0.0115855998533361
   30       -0.0000000000000000
   31       -0.0000000000000000
   32       -0.0000000000000000
   33        0.0000000000000000
   34        0.0008451506785548
   35        0.0057407206825338
   36        0.0306664136830277
   37        0.0754817595584004
   38        0.0532384669497447
   39        0.0050353610557552
   40       -0.0000000000000000
   41       -0.0000000000000000
   42        0.0247061100493670
Sym= A
 Ene=  -0.76541236341612573
Spin= Alpha
Occup=  2.0000
    1       -0.0000253438208116
    2       -0.0002007262537620
    3       -0.0010720683214441
    4       -0.0042706841546139
    5       -0.0139222656198636
    6       -0.0315421914218081
    7       -0.0448808999259931
    8        0.0545278297121606
    9        0.1212426805762150
   10        0.2502860106846964
   11        0.0000000000000000
   12        0.0000000000000001
   13        0.0050769402499816
   14        0.0000000000000002
   15        0.0000000000000006
   16        0.0363241363407689
   17        0.0000000000000006
   18        0.0000000000000021
   19        0.1338328388110025
   20        0.0000000000000015
   21        0.0000000000000050
   22        0.2986211090729214
   23        0.0000000000000015
   24        0.0000000000000051
   25        0.3437405417467183
   26        0.0000000000000011
   27        0.0000000000000038
   28        0.1467527460027906
   29       -0.0228890454603857
   30       -0.0000000000000000
   31       -0.0000000000000000
   32        0.0000000000000000
   33        0.0000000000000000
   34       -0.0014345516966072
   35       -0.0105052267296617
   36       -0.0526516303854939
   37       -0.1726334436668492
   38       -0.2182328164526186
   39        0.0037937476832998
   40       -0.0000000000000000
   41       -0.0000000000000000
   42       -0.0442066203743738
Sym= A
 Ene=  -0.64667749431191146
Spin= Alpha
Occup=  2.0000
    1        0.0000000000000000
    2        0.0000000000000000
    3        0.0000000000000000
    4        0.0000000000000000
    5        0.0000000000000001
    6        0.0000000000000002
    7        0.0000000000000003
    8       -0.0000000000000003
    9       -0.0000000000000008
   10       -0.0000000000000006
   11        0.0060217361923334
   12        0.0001552422947844
   13       -0.0000000000000000
   14        0.0423750157553963
   15        0.0010924419630574
   16       -0.0000000000000002
   17        0.1610421603132403
   18        0.0041517181949836
   19       -0.0000000000000005
   20        0.3460822580765250
   21        0.0089221193029168
   22       -0.0000000000000013
   23        0.4276555771324917
   24        0.0110250987190538
   25       -0.0000000000000014
   26        0.2652794285387777
   27        0.0068389666383927
   28       -0.0000000000000010
   29        0.0000000000000000
   30       -0.0125071206987952
   31       -0.0003224256928189
   32       -0.0000000000000000
   33        0.0000000000000000
   34        0.0000000000000000
   35        0.0000000000000000
   36        0.0000000000000001
   37        0.0000000000000004
   38        0.0000000000000006
   39        0.0000000000000004
   40        0.0413741268430299
   41        0.0010666059222833
   42       -0.0000000000000000
Sym= A
 Ene=  -0.64667749431191135
Spin= Alpha
Occup=  2.0000
    1        0.0000000000000000
    2       -0.0000000000000000
    3        0.0000000000000000
    4        0.0000000000000000
    5        0.0000000000000002
    6        0.0000000000000003
    7        0.0000000000000007
    8       -0.0000000000000010
    9       -0.0000000000000023
   10       -0.0000000000000018
   11       -0.0001552422947843
   12        0.0060217361923331
   13       -0.0000000000000001
   14       -0.0010924419630571
   15        0.0423750157553973
   16       -0.0000000000000005
   17       -0.0041517181949814
   18        0.1610421603132391
   19       -0.0000000000000017
   20       -0.0089221193029193
   21        0.3460822580765250
   22       -0.0000000000000040
   23       -0.0110250987190521
   24        0.4276555771324897
   25       -0.0000000000000043
   26       -0.0068389666383940
   27        0.2652794285387805
   28       -0.0000000000000031
   29        0.0000000000000000
   30        0.0003224256928189
   31       -0.0125071206987947
   32       -0.0000000000000000
   33        0.0000000000000000
   34        0.0000000000000000
   35        0.0000000000000001
   36        0.0000000000000004
   37        0.0000000000000013
   38        0.0000000000000019
   39        0.0000000000000014
   40       -0.0010666059222832
   41        0.0413741268430305
   42       -0.0000000000000001
Sym= A
 Ene=   0.12219708195281284
Spin= Alpha
Occup=  0.0000
    1        0.0000222325249987
    2        0.0001672753750209
    3        0.0009623793444745
    4        0.0034562834596510
    5        0.0129356217106355
    6        0.0237442594745334
    7        0.0481009990378209
    8       -0.0828850218946584
    9        0.0117711462362258
   10       -0.5419423912472734
   11       -0.0000000000000000
   12       -0.0000000000000000
   13        0.0014204403348837
   14       -0.0000000000000000
   15       -0.0000000000000001
   16        0.0102536370800027
   17       -0.0000000000000001
   18       -0.0000000000000002
   19        0.0378037759584081
   20       -0.0000000000000001
   21       -0.0000000000000005
   22        0.0847928262117656
   23       -0.0000000000000001
   24       -0.0000000000000005
   25        0.1095851748537431
   26       -0.0000000000000001
   27       -0.0000000000000004
   28        0.1071552801476115
   29       -0.0078755769014460
   30        0.0000000000000000
   31        0.0000000000000000
   32        0.0000000000000000
   33        0.0000000000000000
   34        0.0000144726638155
   35        0.0049252857273959
   36       -0.0124932211423998
   37        0.1463208466371294
   38       -0.3193859329788658
   39        1.4210573716917039
   40        0.0000000000000000
   41        0.0000000000000000
   42       -0.0346517043434252
Sym= A
 Ene=   0.48022607094554848
Spin= Alpha
Occup=  0.0000
    1        0.0000191335617677
    2        0.0001484386735067
    3        0.0008171836356539
    4        0.0031229362299200
    5        0.0107797329227272
    6        0.0224671444080110
    7        0.0377876973638525
    8       -0.0588145088272331
    9       -0.0252523288316146
   10       -0.9140286241136392
   11        0.0000000000000000
   12        0.0000000000000000
   13        0.0025476378256692
   14        0.0000000000000000
   15        0.0000000000000000
   16        0.0168672967818811
   17        0.0000000000000000
   18        0.0000000000000001
   19        0.0703667206549428
   20        0.0000000000000001
   21        0.0000000000000001
   22        0.1345463829493903
   23        0.0000000000000001
   24        0.0000000000000001
   25        0.2445988098644193
   26        0.0000000000000000
   27        0.0000000000000001
   28        0.9790373708451838
   29        0.0214652734094919
   30       -0.0000000000000000
   31       -0.0000000000000000
   32        0.0000000000000000
   33        0.0000000000000000
   34        0.0020293562613721
   35        0.0028517509429802
   36        0.1119546439855199
   37       -0.1325892881898235
   38        2.8447791727709810
   39       -1.3222695864961374
   40       -0.0000000000000000
   41       -0.0000000000000000
   42        0.0248578944028736
Sym= A
 Ene=   0.69498930209711762
Spin= Alpha
Occup=  0.0000
    1        0.0000000000000000
    2        0.0000000000000000
    3        0.0000000000000000
    4        0.0000000000000000
    5        0.0000000000000000
    6        0.0000000000000000
    7        0.0000000000000000
    8       -0.0000000000000000
    9       -0.0000000000000000
   10       -0.0000000000000000
   11        0.0044673131221945
   12        0.0000000065982445
   13       -0.0000000000000000
   14        0.0202253308343218
   15        0.0000000314985729
   16       -0.0000000000000000
   17        0.1367348162180146
   18        0.0000002096535357
   19       -0.0000000000000000
   20        0.0873986933933685
   21        0.0000001341872714
   22       -0.0000000000000000
   23        0.7848616641759296
   24        0.0000012432764815
   25       -0.0000000000000000
   26       -1.2763121390758636
   27       -0.0000019897773181
   28       -0.0000000000000000
   29        0.0000000000000000
   30       -0.0049714895684839
   31       -0.0000000127508269
   32       -0.0000000000000000
   33        0.0000000000000000
   34        0.0000000000000000
   35        0.0000000000000000
   36        0.0000000000000000
   37        0.0000000000000000
   38        0.0000000000000000
   39        0.0000000000000000
   40       -0.0115578131295488
   41        0.0000000160623191
   42       -0.0000000000000000
Sym= A
 Ene=   0.69498930209712406
Spin= Alpha
Occup=  0.0000
    1       -0.0000000000000000
    2        0.0000000000000000
    3       -0.0000000000000000
    4       -0.0000000000000000
    5       -0.0000000000000000
    6       -0.0000000000000000
    7       -0.0000000000000000
    8        0.0000000000000000
    9        0.0000000000000000
   10        0.0000000000000000
   11        0.0000000065982503
   12       -0.0044673131221945
   13        0.0000000000000000
   14        0.0000000314985694
   15       -0.0202253308343224
   16        0.0000000000000000
   17        0.0000002096535380
   18       -0.1367348162180149
   19        0.0000000000000000
   20        0.0000001341872774
   21       -0.0873986933933744
   22        0.0000000000000000
   23        0.0000012432764741
   24       -0.7848616641759238
   25        0.0000000000000000
   26       -0.0000019897773106
   27        1.2763121390758605
   28        0.0000000000000000
   29       -0.0000000000000000
   30       -0.0000000127508268
   31        0.0049714895684838
   32        0.0000000000000000
   33        0.0000000000000000
   34       -0.0000000000000000
   35       -0.0000000000000000
   36       -0.0000000000000000
   37       -0.0000000000000000
   38       -0.0000000000000000
   39       -0.0000000000000000
   40        0.0000000160623108
   41        0.0115578131295487
   42        0.0000000000000000
Sym= A
 Ene=   0.70286243399666148
Spin= Alpha
Occup=  0.0000
    1       -0.0000164632050692
    2       -0.0001374447943564
    3       -0.0006791541374935
    4       -0.0030103308352588
    5       -0.0085035502807154
    6       -0.0239029707555070
    7       -0.0232134009682705
    8        0.0092700687858657
    9        0.1438221505150440
   10        0.6988921184704444
   11       -0.0000000000000000
   12       -0.0000000000000000
   13        0.0037957497681839
   14       -0.0000000000000000
   15       -0.0000000000000000
   16        0.0177320852646274
   17       -0.0000000000000000
   18       -0.0000000000000001
   19        0.1151000044456019
   20       -0.0000000000000000
   21       -0.0000000000000002
   22        0.0846501533048646
   23       -0.0000000000000000
   24       -0.0000000000000002
   25        0.5958902232938785
   26       -0.0000000000000000
   27       -0.0000000000000001
   28       -1.7863484802224097
   29       -0.0005709198280767
   30        0.0000000000000000
   31        0.0000000000000000
   32        0.0000000000000000
   33        0.0000000000000000
   34        0.0002312700834245
   35       -0.0042231830061446
   36        0.0216657379029771
   37       -0.1131127936620200
   38       -1.0166389633563264
   39       -0.1082431240816402
   40        0.0000000000000000
   41        0.0000000000000000
   42       -0.2743130702438478
Sym= A
 Ene=    1.1331830128549389
Spin= Alpha
Occup=  0.0000
    1       -0.0000000000000000
    2       -0.0000000000000000
    3       -0.0000000000000000
    4       -0.0000000000000000
    5       -0.0000000000000000
    6       -0.0000000000000000
    7       -0.0000000000000000
    8        0.0000000000000000
    9        0.0000000000000000
   10        0.0000000000000000
   11       -0.0006088446867192
   12       -0.0000000261349767
   13        0.0000000000000000
   14       -0.0034467650619335
   15       -0.0000001478329050
   16        0.0000000000000000
   17       -0.0180579618160976
   18       -0.0000007751626869
   19        0.0000000000000000
   20       -0.0217610366306735
   21       -0.0000009398027174
   22        0.0000000000000000
   23       -0.0953502992456780
   24       -0.0000040742710273
   25        0.0000000000000001
   26       -0.5420346979386915
   27       -0.0000232676059316
   28        0.0000000000000000
   29       -0.0000000000000000
   30       -0.0409663244122799
   31       -0.0000017539979612
   32        0.0000000000000000
   33        0.0000000000000000
   34       -0.0000000000000000
   35       -0.0000000000000000
   36       -0.0000000000000000
   37       -0.0000000000000000
   38       -0.0000000000000000
   39       -0.0000000000000000
   40        1.1544028316744654
   41        0.0000494534043791
   42        0.0000000000000000
Sym= A
 Ene=    1.1331830128549409
Spin= Alpha
Occup=  0.0000
    1       -0.0000000000000000
    2        0.0000000000000000
    3       -0.0000000000000000
    4       -0.0000000000000000
    5       -0.0000000000000000
    6       -0.0000000000000000
    7       -0.0000000000000000
    8        0.0000000000000000
    9        0.0000000000000001
   10        0.0000000000000001
   11        0.0000000261316279
   12       -0.0006088446867192
   13        0.0000000000000000
   14        0.0000001481486002
   15       -0.0034467650619336
   16        0.0000000000000000
   17        0.0000007748078441
   18       -0.0180579618160972
   19        0.0000000000000001
   20        0.0000009400266282
   21       -0.0217610366306747
   22        0.0000000000000002
   23        0.0000040741685612
   24       -0.0953502992456766
   25        0.0000000000000002
   26        0.0000232676362218
   27       -0.5420346979386924
   28        0.0000000000000001
   29       -0.0000000000000000
   30        0.0000017539985772
   31       -0.0409663244122803
   32        0.0000000000000000
   33        0.0000000000000000
   34       -0.0000000000000000
   35       -0.0000000000000000
   36       -0.0000000000000000
   37       -0.0000000000000001
   38       -0.0000000000000001
   39       -0.0000000000000001
   40       -0.0000494534019119
   41        1.1544028316744654
   42        0.0000000000000000
Sym= A
 Ene=    1.2654747683493546
Spin= Alpha
Occup=  0.0000
    1        0.0000611607317114
    2        0.0005987869697949
    3        0.0023038958278121
    4        0.0140990963102080
    5        0.0243466810502437
    6        0.1293057125324846
    7       -0.0021695049481521
    8        0.4053415772298463
    9       -2.3171563687729693
   10        3.2655778065805392
   11       -0.0000000000000000
   12       -0.0000000000000000
   13       -0.0000603838841538
   14       -0.0000000000000000
   15       -0.0000000000000000
   16        0.0037909624239310
   17       -0.0000000000000000
   18       -0.0000000000000001
   19       -0.0076023346816749
   20       -0.0000000000000001
   21       -0.0000000000000003
   22        0.0704595755124330
   23       -0.0000000000000001
   24       -0.0000000000000003
   25       -0.1862555052556915
   26       -0.0000000000000001
   27       -0.0000000000000002
   28       -0.8771273989887001
   29       -0.0149981117902321
   30        0.0000000000000000
   31        0.0000000000000000
   32       -0.0000000000000000
   33        0.0000000000000000
   34        0.0002478459978180
   35       -0.0063421568509716
   36        0.0307600157104098
   37       -0.4046036821533540
   38       -0.9218220962100453
   39       -0.5413829751394206
   40        0.0000000000000000
   41        0.0000000000000000
   42       -0.3213337986372097
Sym= A
 Ene=    1.4818637311216669
Spin= Alpha
Occup=  0.0000
    1        0.0000186699117928
    2        0.0001673584054378
    3        0.0007416824698265
    4        0.0037954362579252
    5        0.0086992999221890
    6        0.0325788432131129
    7        0.0143398868267759
    8        0.0589169380003618
    9       -0.4323183355447228
   10        1.4356125321250179
   11        0.0000000000000000
   12        0.0000000000000000
   13        0.0022070243789343
   14        0.0000000000000000
   15        0.0000000000000000
   16        0.0174899048927119
   17        0.0000000000000000
   18        0.0000000000000001
   19        0.0595833706027942
   20        0.0000000000000001
   21        0.0000000000000003
   22        0.1535691509274127
   23        0.0000000000000001
   24        0.0000000000000003
   25        0.1301428765324031
   26        0.0000000000000001
   27        0.0000000000000002
   28       -0.9007024046793718
   29        0.0471632835115395
   30       -0.0000000000000000
   31       -0.0000000000000000
   32        0.0000000000000000
   33        0.0000000000000000
   34        0.0007895835670657
   35        0.0497357261608587
   36       -0.0891819619216828
   37        2.0390754537048270
   38       -3.7757931332222516
   39        1.0332032593362062
   40       -0.0000000000000000
   41       -0.0000000000000000
   42       -0.3437097806983813
Sym= A
 Ene=    1.8542536289570484
Spin= Alpha
Occup=  0.0000
    1       -0.0000126779746267
    2       -0.0001261785182756
    3       -0.0004725308988867
    4       -0.0029924462643301
    5       -0.0048817460837744
    6       -0.0279307493713456
    7        0.0027233932981182
    8       -0.1004991811393908
    9        0.3822818347264695
   10        3.1670538750957768
   11       -0.0000000000000000
   12       -0.0000000000000000
   13       -0.0027625908159205
   14       -0.0000000000000000
   15       -0.0000000000000000
   16       -0.0094516509999776
   17       -0.0000000000000000
   18       -0.0000000000000000
   19       -0.0922695834475626
   20       -0.0000000000000000
   21       -0.0000000000000001
   22        0.0280483393569439
   23       -0.0000000000000000
   24       -0.0000000000000001
   25       -1.4354513425169342
   26       -0.0000000000000000
   27       -0.0000000000000001
   28       -0.9363804260621635
   29        0.0170919147805453
   30        0.0000000000000000
   31        0.0000000000000000
   32       -0.0000000000000000
   33        0.0000000000000000
   34       -0.0000978237334516
   35       -0.0073688597272459
   36        0.0247946785575329
   37       -0.1713600422140754
   38       -3.4711353788229578
   39        0.3063096160585778
   40        0.0000000000000000
   41        0.0000000000000000
   42       -2.5863290495056099
Sym= A
 Ene=    3.2574611404278939
Spin= Alpha
Occup=  0.0000
    1        0.0000000000000000
    2        0.0000000000000000
    3        0.0000000000000000
    4        0.0000000000000000
    5        0.0000000000000000
    6        0.0000000000000000
    7        0.0000000000000000
    8       -0.0000000000000000
    9       -0.0000000000000000
   10       -0.0000000000000000
   11        0.0052248485856251
   12        0.0000000718363837
   13       -0.0000000000000000
   14        0.0871052398492495
   15        0.0000011977322967
   16       -0.0000000000000000
   17        0.0900400923573994
   18        0.0000012380241462
   19       -0.0000000000000000
   20        1.2659791934071163
   21        0.0000174068975743
   22       -0.0000000000000000
   23       -1.8172734286630068
   24       -0.0000249927841522
   25       -0.0000000000000000
   26        0.7045977695962192
   27        0.0000097050147106
   28       -0.0000000000000000
   29        0.0000000000000000
   30       -0.0307365030054119
   31       -0.0000004179322679
   32       -0.0000000000000000
   33        0.0000000000000000
   34        0.0000000000000000
   35        0.0000000000000000
   36        0.0000000000000000
   37        0.0000000000000000
   38        0.0000000000000000
   39        0.0000000000000000
   40        0.0655171707603697
   41        0.0000009026790438
   42       -0.0000000000000000
Sym= A
 Ene=    3.2574611404279046
Spin= Alpha
Occup=  0.0000
    1        0.0000000000000000
    2       -0.0000000000000000
    3        0.0000000000000000
    4        0.0000000000000000
    5        0.0000000000000000
    6        0.0000000000000000
    7        0.0000000000000000
    8       -0.0000000000000000
    9       -0.0000000000000001
   10       -0.0000000000000000
   11       -0.0000000718363831
   12        0.0052248485856251
   13       -0.0000000000000000
   14       -0.0000011977322961
   15        0.0871052398492503
   16       -0.0000000000000000
   17       -0.0000012380241210
   18        0.0900400923574002
   19       -0.0000000000000000
   20       -0.0000174068976061
   21        1.2659791934071138
   22       -0.0000000000000001
   23        0.0000249927841740
   24       -1.8172734286630088
   25       -0.0000000000000001
   26       -0.0000097050147216
   27        0.7045977695962236
   28       -0.0000000000000001
   29        0.0000000000000000
   30        0.0000004179322635
   31       -0.0307365030054128
   32       -0.0000000000000000
   33        0.0000000000000000
   34        0.0000000000000000