[Molden Format]
[GTO]
    1 0
 s  15 1.00
   14351.1860000    1.0000000000
    2173.0741000    0.0000000000
     648.1887000    0.0000000000
     477.8720500    0.0000000000
     140.3064000    0.0000000000
      56.6946900    0.0000000000
      45.6988000    0.0000000000
      27.4887500    0.0000000000
       8.2090960    0.0000000000
       8.1916790    0.0000000000
       3.2445960    0.0000000000
       1.4513800    0.0000000000
       1.3004890    0.0000000000
       0.3281030    0.0000000000
       0.1150760    0.0000000000
 s  15 1.00
   14351.1860000    0.0000000000
    2173.0741000    1.0000000000
     648.1887000    0.0000000000
     477.8720500    0.0000000000
     140.3064000    0.0000000000
      56.6946900    0.0000000000
      45.6988000    0.0000000000
      27.4887500    0.0000000000
       8.2090960    0.0000000000
       8.1916790    0.0000000000
       3.2445960    0.0000000000
       1.4513800    0.0000000000
       1.3004890    0.0000000000
       0.3281030    0.0000000000
       0.1150760    0.0000000000
 s  15 1.00
   14351.1860000    0.0000000000
    2173.0741000    0.0000000000
     648.1887000    1.0000000000
     477.8720500    0.0000000000
     140.3064000    0.0000000000
      56.6946900    0.0000000000
      45.6988000    0.0000000000
      27.4887500    0.0000000000
       8.2090960    0.0000000000
       8.1916790    0.0000000000
       3.2445960    0.0000000000
       1.4513800    0.0000000000
       1.3004890    0.0000000000
       0.3281030    0.0000000000
       0.1150760    0.0000000000
 s  15 1.00
   14351.1860000    0.0000000000
    2173.0741000    0.0000000000
     648.1887000    0.0000000000
     477.8720500    1.0000000000
     140.3064000    0.0000000000
      56.6946900    0.0000000000
      45.6988000    0.0000000000
      27.4887500    0.0000000000
       8.2090960    0.0000000000
       8.1916790    0.0000000000
       3.2445960    0.0000000000
       1.4513800    0.0000000000
       1.3004890    0.0000000000
       0.3281030    0.0000000000
       0.1150760    0.0000000000
 s  15 1.00
   14351.1860000    0.0000000000
    2173.0741000    0.0000000000
     648.1887000    0.0000000000
     477.8720500    0.0000000000
     140.3064000    1.0000000000
      56.6946900    0.0000000000
      45.6988000    0.0000000000
      27.4887500    0.0000000000
       8.2090960    0.0000000000
       8.1916790    0.0000000000
       3.2445960    0.0000000000
       1.4513800    0.0000000000
       1.3004890    0.0000000000
       0.3281030    0.0000000000
       0.1150760    0.0000000000
 s  15 1.00
   14351.1860000    0.0000000000
    2173.0741000    0.0000000000
     648.1887000    0.0000000000
     477.8720500    0.0000000000
     140.3064000    0.0000000000
      56.6946900    1.0000000000
      45.6988000    0.0000000000
      27.4887500    0.0000000000
       8.2090960    0.0000000000
       8.1916790    0.0000000000
       3.2445960    0.0000000000
       1.4513800    0.0000000000
       1.3004890    0.0000000000
       0.3281030    0.0000000000
       0.1150760    0.0000000000
 s  15 1.00
   14351.1860000    0.0000000000
    2173.0741000    0.0000000000
     648.1887000    0.0000000000
     477.8720500    0.0000000000
     140.3064000    0.0000000000
      56.6946900    0.0000000000
      45.6988000    1.0000000000
      27.4887500    0.0000000000
       8.2090960    0.0000000000
       8.1916790    0.0000000000
       3.2445960    0.0000000000
       1.4513800    0.0000000000
       1.3004890    0.0000000000
       0.3281030    0.0000000000
       0.1150760    0.0000000000
 s  15 1.00
   14351.1860000    0.0000000000
    2173.0741000    0.0000000000
     648.1887000    0.0000000000
     477.8720500    0.0000000000
     140.3064000    0.0000000000
      56.6946900    0.0000000000
      45.6988000    0.0000000000
      27.4887500    1.0000000000
       8.2090960    0.0000000000
       8.1916790    0.0000000000
       3.2445960    0.0000000000
       1.4513800    0.0000000000
       1.3004890    0.0000000000
       0.3281030    0.0000000000
       0.1150760    0.0000000000
 s  15 1.00
   14351.1860000    0.0000000000
    2173.0741000    0.0000000000
     648.1887000    0.0000000000
     477.8720500    0.0000000000
     140.3064000    0.0000000000
      56.6946900    0.0000000000
      45.6988000    0.0000000000
      27.4887500    0.0000000000
       8.2090960    1.0000000000
       8.1916790    0.0000000000
       3.2445960    0.0000000000
       1.4513800    0.0000000000
       1.3004890    0.0000000000
       0.3281030    0.0000000000
       0.1150760    0.0000000000
 s  15 1.00
   14351.1860000    0.0000000000
    2173.0741000    0.0000000000
     648.1887000    0.0000000000
     477.8720500    0.0000000000
     140.3064000    0.0000000000
      56.6946900    0.0000000000
      45.6988000    0.0000000000
      27.4887500    0.0000000000
       8.2090960    0.0000000000
       8.1916790    1.0000000000
       3.2445960    0.0000000000
       1.4513800    0.0000000000
       1.3004890    0.0000000000
       0.3281030    0.0000000000
       0.1150760    0.0000000000
 s  15 1.00
   14351.1860000    0.0000000000
    2173.0741000    0.0000000000
     648.1887000    0.0000000000
     477.8720500    0.0000000000
     140.3064000    0.0000000000
      56.6946900    0.0000000000
      45.6988000    0.0000000000
      27.4887500    0.0000000000
       8.2090960    0.0000000000
       8.1916790    0.0000000000
       3.2445960    1.0000000000
       1.4513800    0.0000000000
       1.3004890    0.0000000000
       0.3281030    0.0000000000
       0.1150760    0.0000000000
 s  15 1.00
   14351.1860000    0.0000000000
    2173.0741000    0.0000000000
     648.1887000    0.0000000000
     477.8720500    0.0000000000
     140.3064000    0.0000000000
      56.6946900    0.0000000000
      45.6988000    0.0000000000
      27.4887500    0.0000000000
       8.2090960    0.0000000000
       8.1916790    0.0000000000
       3.2445960    0.0000000000
       1.4513800    1.0000000000
       1.3004890    0.0000000000
       0.3281030    0.0000000000
       0.1150760    0.0000000000
 s  15 1.00
   14351.1860000    0.0000000000
    2173.0741000    0.0000000000
     648.1887000    0.0000000000
     477.8720500    0.0000000000
     140.3064000    0.0000000000
      56.6946900    0.0000000000
      45.6988000    0.0000000000
      27.4887500    0.0000000000
       8.2090960    0.0000000000
       8.1916790    0.0000000000
       3.2445960    0.0000000000
       1.4513800    0.0000000000
       1.3004890    1.0000000000
       0.3281030    0.0000000000
       0.1150760    0.0000000000
 s  15 1.00
   14351.1860000    0.0000000000
    2173.0741000    0.0000000000
     648.1887000    0.0000000000
     477.8720500    0.0000000000
     140.3064000    0.0000000000
      56.6946900    0.0000000000
      45.6988000    0.0000000000
      27.4887500    0.0000000000
       8.2090960    0.0000000000
       8.1916790    0.0000000000
       3.2445960    0.0000000000
       1.4513800    0.0000000000
       1.3004890    0.0000000000
       0.3281030    1.0000000000
       0.1150760    0.0000000000
 s  15 1.00
   14351.1860000    0.0000000000
    2173.0741000    0.0000000000
     648.1887000    0.0000000000
     477.8720500    0.0000000000
     140.3064000    0.0000000000
      56.6946900    0.0000000000
      45.6988000    0.0000000000
      27.4887500    0.0000000000
       8.2090960    0.0000000000
       8.1916790    0.0000000000
       3.2445960    0.0000000000
       1.4513800    0.0000000000
       1.3004890    0.0000000000
       0.3281030    0.0000000000
       0.1150760    1.0000000000
 p  12 1.00
     648.1887000    1.0000000000
     140.3064000    0.0000000000
      56.6946900    0.0000000000
      45.6988000    0.0000000000
      27.4887500    0.0000000000
       8.2090960    0.0000000000
       8.1916790    0.0000000000
       3.2445960    0.0000000000
       1.4513800    0.0000000000
       1.3004890    0.0000000000
       0.3281030    0.0000000000
       0.1150760    0.0000000000
 p  12 1.00
     648.1887000    0.0000000000
     140.3064000    1.0000000000
      56.6946900    0.0000000000
      45.6988000    0.0000000000
      27.4887500    0.0000000000
       8.2090960    0.0000000000
       8.1916790    0.0000000000
       3.2445960    0.0000000000
       1.4513800    0.0000000000
       1.3004890    0.0000000000
       0.3281030    0.0000000000
       0.1150760    0.0000000000
 p  12 1.00
     648.1887000    0.0000000000
     140.3064000    0.0000000000
      56.6946900    1.0000000000
      45.6988000    0.0000000000
      27.4887500    0.0000000000
       8.2090960    0.0000000000
       8.1916790    0.0000000000
       3.2445960    0.0000000000
       1.4513800    0.0000000000
       1.3004890    0.0000000000
       0.3281030    0.0000000000
       0.1150760    0.0000000000
 p  12 1.00
     648.1887000    0.0000000000
     140.3064000    0.0000000000
      56.6946900    0.0000000000
      45.6988000    1.0000000000
      27.4887500    0.0000000000
       8.2090960    0.0000000000
       8.1916790    0.0000000000
       3.2445960    0.0000000000
       1.4513800    0.0000000000
       1.3004890    0.0000000000
       0.3281030    0.0000000000
       0.1150760    0.0000000000
 p  12 1.00
     648.1887000    0.0000000000
     140.3064000    0.0000000000
      56.6946900    0.0000000000
      45.6988000    0.0000000000
      27.4887500    1.0000000000
       8.2090960    0.0000000000
       8.1916790    0.0000000000
       3.2445960    0.0000000000
       1.4513800    0.0000000000
       1.3004890    0.0000000000
       0.3281030    0.0000000000
       0.1150760    0.0000000000
 p  12 1.00
     648.1887000    0.0000000000
     140.3064000    0.0000000000
      56.6946900    0.0000000000
      45.6988000    0.0000000000
      27.4887500    0.0000000000
       8.2090960    1.0000000000
       8.1916790    0.0000000000
       3.2445960    0.0000000000
       1.4513800    0.0000000000
       1.3004890    0.0000000000
       0.3281030    0.0000000000
       0.1150760    0.0000000000
 p  12 1.00
     648.1887000    0.0000000000
     140.3064000    0.0000000000
      56.6946900    0.0000000000
      45.6988000    0.0000000000
      27.4887500    0.0000000000
       8.2090960    0.0000000000
       8.1916790    1.0000000000
       3.2445960    0.0000000000
       1.4513800    0.0000000000
       1.3004890    0.0000000000
       0.3281030    0.0000000000
       0.1150760    0.0000000000
 p  12 1.00
     648.1887000    0.0000000000
     140.3064000    0.0000000000
      56.6946900    0.0000000000
      45.6988000    0.0000000000
      27.4887500    0.0000000000
       8.2090960    0.0000000000
       8.1916790    0.0000000000
       3.2445960    1.0000000000
       1.4513800    0.0000000000
       1.3004890    0.0000000000
       0.3281030    0.0000000000
       0.1150760    0.0000000000
 p  12 1.00
     648.1887000    0.0000000000
     140.3064000    0.0000000000
      56.6946900    0.0000000000
      45.6988000    0.0000000000
      27.4887500    0.0000000000
       8.2090960    0.0000000000
       8.1916790    0.0000000000
       3.2445960    0.0000000000
       1.4513800    1.0000000000
       1.3004890    0.0000000000
       0.3281030    0.0000000000
       0.1150760    0.0000000000
 p  12 1.00
     648.1887000    0.0000000000
     140.3064000    0.0000000000
      56.6946900    0.0000000000
      45.6988000    0.0000000000
      27.4887500    0.0000000000
       8.2090960    0.0000000000
       8.1916790    0.0000000000
       3.2445960    0.0000000000
       1.4513800    0.0000000000
       1.3004890    1.0000000000
       0.3281030    0.0000000000
       0.1150760    0.0000000000
 p  12 1.00
     648.1887000    0.0000000000
     140.3064000    0.0000000000
      56.6946900    0.0000000000
      45.6988000    0.0000000000
      27.4887500    0.0000000000
       8.2090960    0.0000000000
       8.1916790    0.0000000000
       3.2445960    0.0000000000
       1.4513800    0.0000000000
       1.3004890    0.0000000000
       0.3281030    1.0000000000
       0.1150760    0.0000000000
 p  12 1.00
     648.1887000    0.0000000000
     140.3064000    0.0000000000
      56.6946900    0.0000000000
      45.6988000    0.0000000000
      27.4887500    0.0000000000
       8.2090960    0.0000000000
       8.1916790    0.0000000000
       3.2445960    0.0000000000
       1.4513800    0.0000000000
       1.3004890    0.0000000000
       0.3281030    0.0000000000
       0.1150760    1.0000000000
 d   6 1.00
     128.0902600    1.0000000000
      35.9823780    0.0000000000
      11.5511160    0.0000000000
       6.1461520    0.0000000000
       2.2209370    0.0000000000
       0.8099120    0.0000000000
 d   6 1.00
     128.0902600    0.0000000000
      35.9823780    1.0000000000
      11.5511160    0.0000000000
       6.1461520    0.0000000000
       2.2209370    0.0000000000
       0.8099120    0.0000000000
 d   6 1.00
     128.0902600    0.0000000000
      35.9823780    0.0000000000
      11.5511160    1.0000000000
       6.1461520    0.0000000000
       2.2209370    0.0000000000
       0.8099120    0.0000000000
 d   6 1.00
     128.0902600    0.0000000000
      35.9823780    0.0000000000
      11.5511160    0.0000000000
       6.1461520    1.0000000000
       2.2209370    0.0000000000
       0.8099120    0.0000000000
 d   6 1.00
     128.0902600    0.0000000000
      35.9823780    0.0000000000
      11.5511160    0.0000000000
       6.1461520    0.0000000000
       2.2209370    1.0000000000
       0.8099120    0.0000000000
 d   6 1.00
     128.0902600    0.0000000000
      35.9823780    0.0000000000
      11.5511160    0.0000000000
       6.1461520    0.0000000000
       2.2209370    0.0000000000
       0.8099120    1.0000000000

    2 0
 s   3 1.00
       5.4471780    1.0000000000
       0.8245470    0.0000000000
       0.1831920    0.0000000000
 s   3 1.00
       5.4471780    0.0000000000
       0.8245470    1.0000000000
       0.1831920    0.0000000000
 s   3 1.00
       5.4471780    0.0000000000
       0.8245470    0.0000000000
       0.1831920    1.0000000000

*** Dalton interface to Molden, wave function type :
HF          24Aug22   20:39:04
[Atoms] AU
I          1    53         0.0000000000         0.0000000000         0.023956740
H          2     1         0.0000000000         0.0000000000        -3.016612626
[5D7F]
[9G]
[MO]
Sym= A
 Ene=   -1172.8968391039896
Spin= Alpha
Occup=  2.0000
    1       -0.0610717409433670
    2       -0.3354268178391896
    3       -0.2796613509852512
    4       -0.3160096541227315
    5       -0.2267446397065483
    6        0.4793217840409555
    7       -0.5312052631615513
    8        0.1543140812816784
    9      -13.7896405645046496
   10       13.7815439947641547
   11       -0.0323056054275890
   12        0.0681894087613376
   13       -0.0562897995476820
   14        0.0012793245261984
   15       -0.0003652102560933
   16       -0.0000000000000000
   17        0.0000000000000000
   18        0.0000012439934647
   19       -0.0000000000000000
   20        0.0000000000000000
   21        0.0000024778939665
   22        0.0000000000000000
   23       -0.0000000000000000
   24       -0.0000235052506547
   25       -0.0000000000000000
   26        0.0000000000000000
   27        0.0000340000551372
   28        0.0000000000000000
   29       -0.0000000000000000
   30       -0.0000181164949363
   31        0.0000000000000000
   32        0.0000000000000009
   33        0.0064839543090155
   34       -0.0000000000000000
   35       -0.0000000000000009
   36       -0.0064956856364516
   37        0.0000000000000000
   38        0.0000000000000000
   39        0.0000435356206042
   40       -0.0000000000000000
   41       -0.0000000000000000
   42       -0.0002342869715618
   43        0.0000000000000000
   44        0.0000000000000000
   45        0.0002199266624684
   46       -0.0000000000000000
   47       -0.0000000000000000
   48       -0.0000214161168338
   49        0.0000000000000000
   50        0.0000000000000000
   51        0.0000383743060995
   52        0.0000000964924780
   53       -0.0000000000000001
   54        0.0000000000000001
   55       -0.0000000000000001
   56        0.0000000000000001
   57       -0.0000004654557711
   58       -0.0000000000000004
   59        0.0000000000000006
   60        0.0000000000000008
   61        0.0000000000000002
   62        0.0000010622347941
   63       -0.0000000000000004
   64        0.0000000000000006
   65       -0.0000000000000003
   66        0.0000000000000003
   67       -0.0000016737011898
   68        0.0000000000000000
   69        0.0000000000000001
   70        0.0000000000000002
   71        0.0000000000000000
   72        0.0000024076092776
   73        0.0000000000000001
   74        0.0000000000000001
   75       -0.0000000000000001
   76        0.0000000000000000
   77       -0.0000041017731539
   78        0.0000000000000001
   79        0.0000000000000000
   80        0.0000000000000002
   81       -0.0000000000000000
   82        0.0000089045524537
   83       -0.0000404121385347
   84        0.0000670007053223
Sym= A
 Ene=   -180.74734410682143
Spin= Alpha
Occup=  2.0000
    1       -0.0202626543716390
    2       -0.1276061700768165
    3       -0.1223475639328227
    4       -0.2192664296077027
    5       -0.0433487248302024
    6        1.6266988833362350
    7       -1.1147953292875410
    8        0.6799690238875238
    9      -31.7208129272267030
   10       31.7250071615139539
   11       -0.0861457604250303
   12        0.1909881663357879
   13       -0.1585075388371703
   14        0.0037413550704323
   15       -0.0010768671732414
   16        0.0000000000000000
   17       -0.0000000000000000
   18       -0.0000438708099633
   19        0.0000000000000000
   20       -0.0000000000000000
   21       -0.0001930274713571
   22       -0.0000000000000000
   23        0.0000000000000000
   24        0.0000966620520798
   25        0.0000000000000000
   26       -0.0000000000000000
   27       -0.0002714019394184
   28       -0.0000000000000000
   29        0.0000000000000000
   30        0.0000284086458233
   31       -0.0000000000000003
   32        0.0000000000000000
   33        0.0023828752365439
   34        0.0000000000000003
   35       -0.0000000000000000
   36       -0.0024241356505715
   37       -0.0000000000000000
   38        0.0000000000000000
   39        0.0000839231350248
   40        0.0000000000000000
   41       -0.0000000000000000
   42       -0.0005858723867676
   43       -0.0000000000000000
   44        0.0000000000000000
   45        0.0005608945719908
   46        0.0000000000000000
   47       -0.0000000000000000
   48       -0.0000609121557277
   49       -0.0000000000000000
   50       -0.0000000000000000
   51        0.0001130045335796
   52        0.0000049684180403
   53        0.0000000000000059
   54       -0.0000000000000101
   55        0.0000000000000044
   56       -0.0000000000000042
   57        0.0000078277180803
   58        0.0000000000000246
   59       -0.0000000000000420
   60        0.0000000000000203
   61       -0.0000000000000176
   62        0.0000003070750763
   63        0.0000000000000267
   64       -0.0000000000000456
   65        0.0000000000000191
   66       -0.0000000000000192
   67       -0.0000003887185148
   68        0.0000000000000035
   69       -0.0000000000000057
   70        0.0000000000000028
   71       -0.0000000000000024
   72        0.0000065230464475
   73        0.0000000000000026
   74       -0.0000000000000038
   75        0.0000000000000014
   76       -0.0000000000000016
   77       -0.0000127119681640
   78       -0.0000000000000003
   79        0.0000000000000009
   80       -0.0000000000000000
   81        0.0000000000000004
   82        0.0000263549939600
   83       -0.0001184332114373
   84        0.0001982096592179
Sym= A
 Ene=   -168.93515443096578
Spin= Alpha
Occup=  2.0000
    1       -0.0000069489055528
    2       -0.0000435038974858
    3       -0.0000476008422556
    4       -0.0000676052763006
    5       -0.0000316728173320
    6        0.0008890595859144
    7       -0.0008733504418957
    8        0.0005069879567314
    9       -0.1288303723007865
   10        0.1290535270503212
   11       -0.0008201448959491
   12        0.0039848626565564
   13       -0.0036645877819180
   14        0.0002863950825062
   15       -0.0003321073175600
   16       -0.0000000000000000
   17       -0.0000000000000000
   18        0.1404349173101562
   19       -0.0000000000000000
   20       -0.0000000000000000
   21        0.6205592603479614
   22        0.0000000000000000
   23        0.0000000000000000
   24       -0.4860154626806436
   25       -0.0000000000000000
   26       -0.0000000000000000
   27        1.0686552466423378
   28        0.0000000000000000
   29        0.0000000000000000
   30       -0.2569183567160631
   31        0.0000000000000003
   32        0.0000000000000000
   33       44.5166320434866023
   34       -0.0000000000000003
   35       -0.0000000000000000
   36      -44.4973759840836465
   37        0.0000000000000000
   38        0.0000000000000000
   39        0.1131106798730538
   40       -0.0000000000000000
   41        0.0000000000000000
   42       -0.2571050891925371
   43        0.0000000000000000
   44       -0.0000000000000000
   45        0.2144637495593535
   46       -0.0000000000000000
   47        0.0000000000000000
   48       -0.0056090916249450
   49        0.0000000000000000
   50       -0.0000000000000000
   51        0.0018978133031094
   52       -0.0000079685832806
   53       -0.0000000000000101
   54        0.0000000000000172
   55       -0.0000000000000068
   56        0.0000000000000072
   57       -0.0000147729858293
   58       -0.0000000000000420
   59        0.0000000000000714
   60       -0.0000000000000281
   61        0.0000000000000300
   62       -0.0000027085718893
   63       -0.0000000000000456
   64        0.0000000000000776
   65       -0.0000000000000306
   66        0.0000000000000326
   67        0.0000034409622467
   68       -0.0000000000000057
   69        0.0000000000000097
   70       -0.0000000000000038
   71        0.0000000000000041
   72       -0.0000011669755643
   73       -0.0000000000000040
   74        0.0000000000000066
   75       -0.0000000000000027
   76        0.0000000000000028
   77       -0.0000121501230723
   78        0.0000000000000009
   79       -0.0000000000000015
   80        0.0000000000000006
   81       -0.0000000000000006
   82        0.0000527317812730
   83       -0.0004845546196719
   84        0.0005975084072240
Sym= A
 Ene=   -168.93412335143148
Spin= Alpha
Occup=  2.0000
    1        0.0000000000000000
    2       -0.0000000000000000
    3        0.0000000000000000
    4       -0.0000000000000000
    5        0.0000000000000000
    6       -0.0000000000000000
    7        0.0000000000000001
    8       -0.0000000000000000
    9        0.0000000000000118
   10       -0.0000000000000118
   11        0.0000000000000001
   12       -0.0000000000000004
   13        0.0000000000000004
   14       -0.0000000000000001
   15        0.0000000000000001
   16       -0.1404290350687309
   17        0.0016504558916286
   18       -0.0000000000000000
   19       -0.6205250696117893
   20        0.0072930009809052
   21       -0.0000000000000000
   22        0.4858785454331274
   23       -0.0057104894446502
   24        0.0000000000000000
   25       -1.0683961305626990
   26        0.0125567810576865
   27       -0.0000000000000001
   28        0.2567822081231108
   29       -0.0030179325604421
   30        0.0000000000000000
   31      -44.4516059418985847
   32        0.5224325992798071
   33        0.0000000000000059
   34       44.4322203891009906
   35       -0.5222047570337767
   36       -0.0000000000000059
   37       -0.1126407923377169
   38        0.0013238429586054
   39       -0.0000000000000001
   40        0.2545036332722352
   41       -0.0029911208565671
   42       -0.0000000000000001
   43       -0.2120191155627810
   44        0.0024918100315828
   45        0.0000000000000000
   46        0.0053938631717381
   47       -0.0000633927191972
   48        0.0000000000000000
   49       -0.0015991786893424
   50        0.0000187947354495
   51       -0.0000000000000001
   52       -0.0000000000000102
   53        0.0000099001595592
   54       -0.0000001163556570
   55       -0.0000000001848326
   56        0.0000000000007409
   57       -0.0000000000000424
   58        0.0000136950229958
   59       -0.0000001608499078
   60       -0.0000000000609859
   61        0.0000000000548513
   62       -0.0000000000000461
   63       -0.0000010438333151
   64        0.0000000120792541
   65       -0.0000000001502616
   66       -0.0000000000580627
   67       -0.0000000000000057
   68        0.0000023838301968
   69       -0.0000000278880342
   70        0.0000000001756977
   71        0.0000000000870378
   72       -0.0000000000000040
   73       -0.0000004599428104
   74        0.0000000053690088
   75       -0.0000000000142124
   76       -0.0000000000788892
   77        0.0000000000000009
   78       -0.0000001461628898
   79        0.0000000016830792
   80        0.0000000000981686
   81        0.0000000000473775
   82        0.0000000000000000
   83       -0.0000000000000001
   84       -0.0000000000000001
Sym= A
 Ene=   -168.93412313127482
Spin= Alpha
Occup=  2.0000
    1       -0.0000000000000000
    2       -0.0000000000000000
    3       -0.0000000000000000
    4        0.0000000000000000
    5       -0.0000000000000000
    6        0.0000000000000002
    7       -0.0000000000000002
    8        0.0000000000000001
    9       -0.0000000000000755
   10        0.0000000000000757
   11       -0.0000000000000006
   12        0.0000000000000051
   13       -0.0000000000000049
   14        0.0000000000000004
   15       -0.0000000000000003
   16       -0.0016504558451206
   17       -0.1404290394435019
   18       -0.0000000000000000
   19       -0.0072930019740397
   20       -0.6205249886990891
   21       -0.0000000000000000
   22        0.0057105080316337
   23        0.4858769867497077
   24        0.0000000000000000
   25       -0.0125568100232450
   26       -1.0683937112217279
   27       -0.0000000000000000
   28        0.0030179498448968
   29        0.2567807880970904
   30        0.0000000000000000
   31       -0.5224377313719712
   32      -44.4511901503227094
   33       -0.0000000000000009
   34        0.5222098936600885
   35       44.4318042244743268
   36        0.0000000000000010
   37       -0.0013238622507748
   38       -0.1126392149424677
   39       -0.0000000000000000
   40        0.0029911715510206
   41        0.2544994573643070
   42       -0.0000000000000001
   43       -0.0024918528125162
   44       -0.2120155887100460
   45        0.0000000000000001
   46        0.0000633938938198
   47        0.0053937656889894
   48       -0.0000000000000000
   49       -0.0000187950883991
   50       -0.0015991493405394
   51        0.0000000000000002
   52        0.0000000000000168
   53        0.0000001163849676
   54        0.0000099001551740
   55       -0.0000000000538716
   56       -0.0000000000387665
   57        0.0000000000000700
   58        0.0000001609683537
   59        0.0000136950198141
   60       -0.0000000000691590
   61        0.0000000000169293
   62        0.0000000000000761
   63       -0.0000000123270621
   64       -0.0000010438318021
   65       -0.0000000000234786
   66       -0.0000000000384030
   67        0.0000000000000095
   68        0.0000000280193948
   69        0.0000023838295293
   70        0.0000000000116239
   71        0.0000000000457673
   72        0.0000000000000066
   73       -0.0000000052709703
   74       -0.0000004599368611
   75        0.0000000001565245
   76       -0.0000000000665354
   77       -0.0000000000000015
   78       -0.0000000018099233
   79       -0.0000001461700277
   80       -0.0000000000412353
   81       -0.0000000000281900
   82       -0.0000000000000001
   83        0.0000000000000001
   84        0.0000000000000002
Sym= A
 Ene=   -37.925303120119068
Spin= Alpha
Occup=  2.0000
    1        0.0090447783946634
    2        0.0584001557105762
    3        0.0524979679651627
    4        0.1163628100891557
    5       -0.0023737048784426
    6       -0.9471114652293882
    7        0.2956571614843496
    8       -0.2568020577382574
    9       97.4311300554612814
   10      -96.4077397557396836
   11        0.4000529742206880
   12       -0.6372558230290688
   13        0.5293552982010797
   14       -0.0125532277766222
   15        0.0036164758166464
   16       -0.0000000004543448
   17       -0.0000000000022964
   18        0.0001013974823872
   19       -0.0000000022735877
   20       -0.0000000000114913
   21        0.0005025259234463
   22        0.0000000030766071
   23        0.0000000000155498
   24       -0.0006022525179755
   25       -0.0000000061041603
   26       -0.0000000000308517
   27        0.0012378250583989
   28        0.0000000046771598
   29        0.0000000000236394
   30       -0.0009082744682559
   31        0.0000003357467668
   32        0.0000000016972421
   33       -0.1069096863003822
   34       -0.0000003314166711
   35       -0.0000000016753575
   36        0.1059190968722467
   37        0.0000000010308388
   38        0.0000000000052127
   39       -0.0006143019846976
   40       -0.0000000013088191
   41       -0.0000000000066440
   42        0.0023052912039787
   43        0.0000000010818765
   44        0.0000000000054971
   45       -0.0021599076131623
   46       -0.0000000000256041
   47       -0.0000000000001317
   48        0.0002101162095906
   49        0.0000000000075173
   50        0.0000000000000388
   51       -0.0003825420794885
   52        0.0000215696613779
   53       -0.0000000000002343
   54       -0.0000000000003017
   55        0.0000000000001175