[Molden Format]
[GTO]
    1 0
 s  15 1.00
  444750.0000000    1.0000000000
   66127.0000000    0.0000000000
   14815.0000000    0.0000000000
    4144.9000000    0.0000000000
    1361.2000000    0.0000000000
     508.4400000    0.0000000000
     209.5900000    0.0000000000
      81.9590000    0.0000000000
      36.8050000    0.0000000000
      13.4950000    0.0000000000
       6.8859000    0.0000000000
       2.5520000    0.0000000000
       1.2088000    0.0000000000
       0.2734000    0.0000000000
       0.1009000    0.0000000000
 s  15 1.00
  444750.0000000    0.0000000000
   66127.0000000    1.0000000000
   14815.0000000    0.0000000000
    4144.9000000    0.0000000000
    1361.2000000    0.0000000000
     508.4400000    0.0000000000
     209.5900000    0.0000000000
      81.9590000    0.0000000000
      36.8050000    0.0000000000
      13.4950000    0.0000000000
       6.8859000    0.0000000000
       2.5520000    0.0000000000
       1.2088000    0.0000000000
       0.2734000    0.0000000000
       0.1009000    0.0000000000
 s  15 1.00
  444750.0000000    0.0000000000
   66127.0000000    0.0000000000
   14815.0000000    1.0000000000
    4144.9000000    0.0000000000
    1361.2000000    0.0000000000
     508.4400000    0.0000000000
     209.5900000    0.0000000000
      81.9590000    0.0000000000
      36.8050000    0.0000000000
      13.4950000    0.0000000000
       6.8859000    0.0000000000
       2.5520000    0.0000000000
       1.2088000    0.0000000000
       0.2734000    0.0000000000
       0.1009000    0.0000000000
 s  15 1.00
  444750.0000000    0.0000000000
   66127.0000000    0.0000000000
   14815.0000000    0.0000000000
    4144.9000000    1.0000000000
    1361.2000000    0.0000000000
     508.4400000    0.0000000000
     209.5900000    0.0000000000
      81.9590000    0.0000000000
      36.8050000    0.0000000000
      13.4950000    0.0000000000
       6.8859000    0.0000000000
       2.5520000    0.0000000000
       1.2088000    0.0000000000
       0.2734000    0.0000000000
       0.1009000    0.0000000000
 s  15 1.00
  444750.0000000    0.0000000000
   66127.0000000    0.0000000000
   14815.0000000    0.0000000000
    4144.9000000    0.0000000000
    1361.2000000    1.0000000000
     508.4400000    0.0000000000
     209.5900000    0.0000000000
      81.9590000    0.0000000000
      36.8050000    0.0000000000
      13.4950000    0.0000000000
       6.8859000    0.0000000000
       2.5520000    0.0000000000
       1.2088000    0.0000000000
       0.2734000    0.0000000000
       0.1009000    0.0000000000
 s  15 1.00
  444750.0000000    0.0000000000
   66127.0000000    0.0000000000
   14815.0000000    0.0000000000
    4144.9000000    0.0000000000
    1361.2000000    0.0000000000
     508.4400000    1.0000000000
     209.5900000    0.0000000000
      81.9590000    0.0000000000
      36.8050000    0.0000000000
      13.4950000    0.0000000000
       6.8859000    0.0000000000
       2.5520000    0.0000000000
       1.2088000    0.0000000000
       0.2734000    0.0000000000
       0.1009000    0.0000000000
 s  15 1.00
  444750.0000000    0.0000000000
   66127.0000000    0.0000000000
   14815.0000000    0.0000000000
    4144.9000000    0.0000000000
    1361.2000000    0.0000000000
     508.4400000    0.0000000000
     209.5900000    1.0000000000
      81.9590000    0.0000000000
      36.8050000    0.0000000000
      13.4950000    0.0000000000
       6.8859000    0.0000000000
       2.5520000    0.0000000000
       1.2088000    0.0000000000
       0.2734000    0.0000000000
       0.1009000    0.0000000000
 s  15 1.00
  444750.0000000    0.0000000000
   66127.0000000    0.0000000000
   14815.0000000    0.0000000000
    4144.9000000    0.0000000000
    1361.2000000    0.0000000000
     508.4400000    0.0000000000
     209.5900000    0.0000000000
      81.9590000    1.0000000000
      36.8050000    0.0000000000
      13.4950000    0.0000000000
       6.8859000    0.0000000000
       2.5520000    0.0000000000
       1.2088000    0.0000000000
       0.2734000    0.0000000000
       0.1009000    0.0000000000
 s  15 1.00
  444750.0000000    0.0000000000
   66127.0000000    0.0000000000
   14815.0000000    0.0000000000
    4144.9000000    0.0000000000
    1361.2000000    0.0000000000
     508.4400000    0.0000000000
     209.5900000    0.0000000000
      81.9590000    0.0000000000
      36.8050000    1.0000000000
      13.4950000    0.0000000000
       6.8859000    0.0000000000
       2.5520000    0.0000000000
       1.2088000    0.0000000000
       0.2734000    0.0000000000
       0.1009000    0.0000000000
 s  15 1.00
  444750.0000000    0.0000000000
   66127.0000000    0.0000000000
   14815.0000000    0.0000000000
    4144.9000000    0.0000000000
    1361.2000000    0.0000000000
     508.4400000    0.0000000000
     209.5900000    0.0000000000
      81.9590000    0.0000000000
      36.8050000    0.0000000000
      13.4950000    1.0000000000
       6.8859000    0.0000000000
       2.5520000    0.0000000000
       1.2088000    0.0000000000
       0.2734000    0.0000000000
       0.1009000    0.0000000000
 s  15 1.00
  444750.0000000    0.0000000000
   66127.0000000    0.0000000000
   14815.0000000    0.0000000000
    4144.9000000    0.0000000000
    1361.2000000    0.0000000000
     508.4400000    0.0000000000
     209.5900000    0.0000000000
      81.9590000    0.0000000000
      36.8050000    0.0000000000
      13.4950000    0.0000000000
       6.8859000    1.0000000000
       2.5520000    0.0000000000
       1.2088000    0.0000000000
       0.2734000    0.0000000000
       0.1009000    0.0000000000
 s  15 1.00
  444750.0000000    0.0000000000
   66127.0000000    0.0000000000
   14815.0000000    0.0000000000
    4144.9000000    0.0000000000
    1361.2000000    0.0000000000
     508.4400000    0.0000000000
     209.5900000    0.0000000000
      81.9590000    0.0000000000
      36.8050000    0.0000000000
      13.4950000    0.0000000000
       6.8859000    0.0000000000
       2.5520000    1.0000000000
       1.2088000    0.0000000000
       0.2734000    0.0000000000
       0.1009000    0.0000000000
 s  15 1.00
  444750.0000000    0.0000000000
   66127.0000000    0.0000000000
   14815.0000000    0.0000000000
    4144.9000000    0.0000000000
    1361.2000000    0.0000000000
     508.4400000    0.0000000000
     209.5900000    0.0000000000
      81.9590000    0.0000000000
      36.8050000    0.0000000000
      13.4950000    0.0000000000
       6.8859000    0.0000000000
       2.5520000    0.0000000000
       1.2088000    1.0000000000
       0.2734000    0.0000000000
       0.1009000    0.0000000000
 s  15 1.00
  444750.0000000    0.0000000000
   66127.0000000    0.0000000000
   14815.0000000    0.0000000000
    4144.9000000    0.0000000000
    1361.2000000    0.0000000000
     508.4400000    0.0000000000
     209.5900000    0.0000000000
      81.9590000    0.0000000000
      36.8050000    0.0000000000
      13.4950000    0.0000000000
       6.8859000    0.0000000000
       2.5520000    0.0000000000
       1.2088000    0.0000000000
       0.2734000    1.0000000000
       0.1009000    0.0000000000
 s  15 1.00
  444750.0000000    0.0000000000
   66127.0000000    0.0000000000
   14815.0000000    0.0000000000
    4144.9000000    0.0000000000
    1361.2000000    0.0000000000
     508.4400000    0.0000000000
     209.5900000    0.0000000000
      81.9590000    0.0000000000
      36.8050000    0.0000000000
      13.4950000    0.0000000000
       6.8859000    0.0000000000
       2.5520000    0.0000000000
       1.2088000    0.0000000000
       0.2734000    0.0000000000
       0.1009000    1.0000000000
 p  12 1.00
    2953.6000000    1.0000000000
     712.6100000    0.0000000000
     236.7100000    0.0000000000
      92.6310000    0.0000000000
      39.7320000    0.0000000000
      17.2730000    0.0000000000
       7.9570000    0.0000000000
       3.1529000    0.0000000000
       1.3328000    0.0000000000
       0.4947000    0.0000000000
       0.2160000    0.0000000000
       0.0829300    0.0000000000
 p  12 1.00
    2953.6000000    0.0000000000
     712.6100000    1.0000000000
     236.7100000    0.0000000000
      92.6310000    0.0000000000
      39.7320000    0.0000000000
      17.2730000    0.0000000000
       7.9570000    0.0000000000
       3.1529000    0.0000000000
       1.3328000    0.0000000000
       0.4947000    0.0000000000
       0.2160000    0.0000000000
       0.0829300    0.0000000000
 p  12 1.00
    2953.6000000    0.0000000000
     712.6100000    0.0000000000
     236.7100000    1.0000000000
      92.6310000    0.0000000000
      39.7320000    0.0000000000
      17.2730000    0.0000000000
       7.9570000    0.0000000000
       3.1529000    0.0000000000
       1.3328000    0.0000000000
       0.4947000    0.0000000000
       0.2160000    0.0000000000
       0.0829300    0.0000000000
 p  12 1.00
    2953.6000000    0.0000000000
     712.6100000    0.0000000000
     236.7100000    0.0000000000
      92.6310000    1.0000000000
      39.7320000    0.0000000000
      17.2730000    0.0000000000
       7.9570000    0.0000000000
       3.1529000    0.0000000000
       1.3328000    0.0000000000
       0.4947000    0.0000000000
       0.2160000    0.0000000000
       0.0829300    0.0000000000
 p  12 1.00
    2953.6000000    0.0000000000
     712.6100000    0.0000000000
     236.7100000    0.0000000000
      92.6310000    0.0000000000
      39.7320000    1.0000000000
      17.2730000    0.0000000000
       7.9570000    0.0000000000
       3.1529000    0.0000000000
       1.3328000    0.0000000000
       0.4947000    0.0000000000
       0.2160000    0.0000000000
       0.0829300    0.0000000000
 p  12 1.00
    2953.6000000    0.0000000000
     712.6100000    0.0000000000
     236.7100000    0.0000000000
      92.6310000    0.0000000000
      39.7320000    0.0000000000
      17.2730000    1.0000000000
       7.9570000    0.0000000000
       3.1529000    0.0000000000
       1.3328000    0.0000000000
       0.4947000    0.0000000000
       0.2160000    0.0000000000
       0.0829300    0.0000000000
 p  12 1.00
    2953.6000000    0.0000000000
     712.6100000    0.0000000000
     236.7100000    0.0000000000
      92.6310000    0.0000000000
      39.7320000    0.0000000000
      17.2730000    0.0000000000
       7.9570000    1.0000000000
       3.1529000    0.0000000000
       1.3328000    0.0000000000
       0.4947000    0.0000000000
       0.2160000    0.0000000000
       0.0829300    0.0000000000
 p  12 1.00
    2953.6000000    0.0000000000
     712.6100000    0.0000000000
     236.7100000    0.0000000000
      92.6310000    0.0000000000
      39.7320000    0.0000000000
      17.2730000    0.0000000000
       7.9570000    0.0000000000
       3.1529000    1.0000000000
       1.3328000    0.0000000000
       0.4947000    0.0000000000
       0.2160000    0.0000000000
       0.0829300    0.0000000000
 p  12 1.00
    2953.6000000    0.0000000000
     712.6100000    0.0000000000
     236.7100000    0.0000000000
      92.6310000    0.0000000000
      39.7320000    0.0000000000
      17.2730000    0.0000000000
       7.9570000    0.0000000000
       3.1529000    0.0000000000
       1.3328000    1.0000000000
       0.4947000    0.0000000000
       0.2160000    0.0000000000
       0.0829300    0.0000000000
 p  12 1.00
    2953.6000000    0.0000000000
     712.6100000    0.0000000000
     236.7100000    0.0000000000
      92.6310000    0.0000000000
      39.7320000    0.0000000000
      17.2730000    0.0000000000
       7.9570000    0.0000000000
       3.1529000    0.0000000000
       1.3328000    0.0000000000
       0.4947000    1.0000000000
       0.2160000    0.0000000000
       0.0829300    0.0000000000
 p  12 1.00
    2953.6000000    0.0000000000
     712.6100000    0.0000000000
     236.7100000    0.0000000000
      92.6310000    0.0000000000
      39.7320000    0.0000000000
      17.2730000    0.0000000000
       7.9570000    0.0000000000
       3.1529000    0.0000000000
       1.3328000    0.0000000000
       0.4947000    0.0000000000
       0.2160000    1.0000000000
       0.0829300    0.0000000000
 p  12 1.00
    2953.6000000    0.0000000000
     712.6100000    0.0000000000
     236.7100000    0.0000000000
      92.6310000    0.0000000000
      39.7320000    0.0000000000
      17.2730000    0.0000000000
       7.9570000    0.0000000000
       3.1529000    0.0000000000
       1.3328000    0.0000000000
       0.4947000    0.0000000000
       0.2160000    0.0000000000
       0.0829300    1.0000000000
 d   7 1.00
     261.9500000    1.0000000000
      76.7340000    0.0000000000
      27.5510000    0.0000000000
      10.6060000    0.0000000000
       3.4217000    0.0000000000
       1.1370000    0.0000000000
       0.3020000    0.0000000000
 d   7 1.00
     261.9500000    0.0000000000
      76.7340000    1.0000000000
      27.5510000    0.0000000000
      10.6060000    0.0000000000
       3.4217000    0.0000000000
       1.1370000    0.0000000000
       0.3020000    0.0000000000
 d   7 1.00
     261.9500000    0.0000000000
      76.7340000    0.0000000000
      27.5510000    1.0000000000
      10.6060000    0.0000000000
       3.4217000    0.0000000000
       1.1370000    0.0000000000
       0.3020000    0.0000000000
 d   7 1.00
     261.9500000    0.0000000000
      76.7340000    0.0000000000
      27.5510000    0.0000000000
      10.6060000    1.0000000000
       3.4217000    0.0000000000
       1.1370000    0.0000000000
       0.3020000    0.0000000000
 d   7 1.00
     261.9500000    0.0000000000
      76.7340000    0.0000000000
      27.5510000    0.0000000000
      10.6060000    0.0000000000
       3.4217000    1.0000000000
       1.1370000    0.0000000000
       0.3020000    0.0000000000
 d   7 1.00
     261.9500000    0.0000000000
      76.7340000    0.0000000000
      27.5510000    0.0000000000
      10.6060000    0.0000000000
       3.4217000    0.0000000000
       1.1370000    1.0000000000
       0.3020000    0.0000000000
 d   7 1.00
     261.9500000    0.0000000000
      76.7340000    0.0000000000
      27.5510000    0.0000000000
      10.6060000    0.0000000000
       3.4217000    0.0000000000
       1.1370000    0.0000000000
       0.3020000    1.0000000000

    2 0
 s   2 1.00
       1.3097564    1.0000000000
       0.2331360    0.0000000000
 s   2 1.00
       1.3097564    0.0000000000
       0.2331360    1.0000000000

*** Dalton interface to Molden, wave function type :
HF          24Aug22   13:11:57
[Atoms] AU
I          1    53         0.0000000000         0.0000000000         0.023956740
H          2     1         0.0000000000         0.0000000000        -3.016612626
[5D7F]
[9G]
[MO]
Sym= A
 Ene=   -1177.1848290487098
Spin= Alpha
Occup=  2.0000
    1       -0.0008859534305535
    2       -0.0069448957874313
    3       -0.0360952486474740
    4       -0.1356768925016547
    5       -0.3387728222725069
    6       -0.4366180057132877
    7       -0.1837368065696951
    8       -0.0091304013779110
    9        0.0001186480776044
   10        0.0001335758356627
   11       -0.0000527317638563
   12        0.0000215451905734
   13       -0.0000128625031981
   14        0.0000031100034103
   15       -0.0000011625174623
   16        0.0000000000000000
   17        0.0000000000000000
   18        0.0000000797250579
   19        0.0000000000000000
   20        0.0000000000000000
   21        0.0000009205002643
   22        0.0000000000000000
   23        0.0000000000000000
   24        0.0000009361413000
   25        0.0000000000000000
   26        0.0000000000000000
   27       -0.0000003428147538
   28       -0.0000000000000000
   29        0.0000000000000001
   30        0.0000002200318218
   31       -0.0000000000000000
   32       -0.0000000000000001
   33       -0.0000000979400930
   34       -0.0000000000000000
   35        0.0000000000000000
   36        0.0000000560591506
   37       -0.0000000000000000
   38       -0.0000000000000000
   39       -0.0000000412973809
   40       -0.0000000000000000
   41        0.0000000000000000
   42        0.0000000302465263
   43        0.0000000000000000
   44       -0.0000000000000000
   45        0.0000000078652023
   46       -0.0000000000000000
   47        0.0000000000000000
   48       -0.0000000104354904
   49        0.0000000000000000
   50       -0.0000000000000000
   51        0.0000000473109389
   52        0.0000000370479526
   53       -0.0000000000000000
   54        0.0000000000000000
   55        0.0000000000000001
   56        0.0000000000000000
   57       -0.0000000480121139
   58       -0.0000000000000001
   59        0.0000000000000002
   60       -0.0000000000000002
   61        0.0000000000000001
   62       -0.0000001768869229
   63       -0.0000000000000004
   64        0.0000000000000005
   65       -0.0000000000000002
   66        0.0000000000000002
   67        0.0000000757868638
   68       -0.0000000000000003
   69        0.0000000000000005
   70       -0.0000000000000002
   71        0.0000000000000002
   72        0.0000000285755228
   73        0.0000000000000001
   74        0.0000000000000001
   75        0.0000000000000000
   76        0.0000000000000000
   77       -0.0000000179116957
   78        0.0000000000000001
   79        0.0000000000000000
   80        0.0000000000000000
   81        0.0000000000000000
   82       -0.0000000259466771
   83        0.0000000000000000
   84        0.0000000000000000
   85        0.0000000000000000
   86        0.0000000000000000
   87       -0.0000000667926944
   88        0.0000001117125586
Sym= A
 Ene=   -180.97157498436286
Spin= Alpha
Occup=  2.0000
    1       -0.0002875398233515
    2       -0.0022712613689677
    3       -0.0119477752254628
    4       -0.0478385024186340
    5       -0.1375832938515706
    6       -0.2570678909834551
    7       -0.1137644099444065
    8        0.5349336484887257
    9        0.5787528432364660
   10        0.0840362891110596
   11       -0.0185870967195306
   12        0.0058878629615480
   13       -0.0026019182397001
   14        0.0005984663024782
   15       -0.0002334342661070
   16       -0.0000000000009929
   17       -0.0000000000300601
   18       -0.0000025676046489
   19       -0.0000000000069833
   20       -0.0000000002114249
   21       -0.0000176370446862
   22       -0.0000000000239850
   23       -0.0000000007261670
   24       -0.0000611117914286
   25       -0.0000000000389140
   26       -0.0000000011781528
   27       -0.0001040961051786
   28       -0.0000000000224384
   29       -0.0000000006793501
   30       -0.0000714531926038
   31       -0.0000000000025504
   32       -0.0000000000772416
   33       -0.0000099991511207
   34       -0.0000000000000588
   35       -0.0000000000018057
   36       -0.0000005549388149
   37        0.0000000000000415
   38        0.0000000000012535
   39        0.0000008484728309
   40       -0.0000000000000171
   41       -0.0000000000005177
   42       -0.0000013749922922
   43        0.0000000000000116
   44        0.0000000000003524
   45        0.0000041038782983
   46       -0.0000000000000062
   47       -0.0000000000001865
   48       -0.0000030306796508
   49        0.0000000000000018
   50        0.0000000000000536
   51        0.0000094023917631
   52        0.0000005650779664
   53        0.0000000000000017
   54        0.0000000000000036
   55        0.0000000000000011
   56       -0.0000000000000011
   57        0.0000074496726174
   58        0.0000000000000094
   59        0.0000000000000071
   60        0.0000000000000059
   61       -0.0000000000000063
   62        0.0000027566628137
   63        0.0000000000000214
   64       -0.0000000000000258
   65        0.0000000000000140
   66       -0.0000000000000152
   67        0.0000012604728818
   68        0.0000000000000208
   69       -0.0000000000000344
   70        0.0000000000000143
   71       -0.0000000000000149
   72        0.0000016237754951
   73        0.0000000000000040
   74       -0.0000000000000044
   75        0.0000000000000023
   76       -0.0000000000000027
   77       -0.0000007106378856
   78       -0.0000000000000002
   79       -0.0000000000000003
   80       -0.0000000000000002
   81        0.0000000000000003
   82       -0.0000031438036389
   83        0.0000000000000001
   84       -0.0000000000000004
   85        0.0000000000000000
   86       -0.0000000000000001
   87       -0.0000150281214315
   88        0.0000210010791236
Sym= A
 Ene=   -169.66217343940482
Spin= Alpha
Occup=  2.0000
    1       -0.0000000659466263
    2       -0.0000005207583751
    3       -0.0000027421712170
    4       -0.0000109862209002
    5       -0.0000317717775589
    6       -0.0000594692327040
    7       -0.0000263113706774
    8        0.0001333114324485
    9        0.0001258633252941
   10        0.0000086810732963
   11       -0.0000007222882676
   12        0.0000021929808034
   13       -0.0000005087979583
   14        0.0000004642180845
   15       -0.0000023139652725
   16       -0.0000000000000000
   17        0.0000000000000002
   18        0.0122085532557031
   19       -0.0000000000000000
   20        0.0000000000000016
   21        0.0858675423118876
   22       -0.0000000000000001
   23        0.0000000000000054
   24        0.2949221382732173
   25       -0.0000000000000001
   26        0.0000000000000087
   27        0.4784978002562961
   28       -0.0000000000000000
   29        0.0000000000000055
   30        0.2759284026415684
   31        0.0000000000000000
   32        0.0000000000000001
   33        0.0313742186684741
   34        0.0000000000000000
   35        0.0000000000000003
   36        0.0007355753521044
   37       -0.0000000000000000
   38       -0.0000000000000002
   39       -0.0005099490794075
   40       -0.0000000000000000
   41        0.0000000000000001
   42        0.0002112385913069
   43       -0.0000000000000000
   44       -0.0000000000000001
   45       -0.0001450169732024
   46       -0.0000000000000000
   47        0.0000000000000000
   48        0.0000782511156577
   49        0.0000000000000000
   50       -0.0000000000000000
   51       -0.0000208413702040
   52       -0.0000016667603326
   53       -0.0000000000000017
   54        0.0000000000000029
   55       -0.0000000000000011
   56        0.0000000000000012
   57       -0.0000056623213559
   58       -0.0000000000000095
   59        0.0000000000000167
   60       -0.0000000000000065
   61        0.0000000000000069
   62       -0.0000072244841144
   63       -0.0000000000000229
   64        0.0000000000000404
   65       -0.0000000000000156
   66        0.0000000000000166
   67        0.0000008865720397
   68       -0.0000000000000225
   69        0.0000000000000396
   70       -0.0000000000000153
   71        0.0000000000000163
   72        0.0000000485849486
   73       -0.0000000000000041
   74        0.0000000000000071
   75       -0.0000000000000028
   76        0.0000000000000029
   77        0.0000006499785829
   78        0.0000000000000004
   79       -0.0000000000000008
   80        0.0000000000000003
   81       -0.0000000000000003
   82       -0.0000020855430171
   83       -0.0000000000000001
   84        0.0000000000000002
   85       -0.0000000000000001
   86        0.0000000000000001
   87        0.0000016828619214
   88        0.0000025643824396
Sym= A
 Ene=   -169.66132135986129
Spin= Alpha
Occup=  2.0000
    1        0.0000000000000151
    2        0.0000000000001194
    3        0.0000000000006280
    4        0.0000000000025144
    5        0.0000000000072313
    6        0.0000000000135113
    7        0.0000000000059794
    8       -0.0000000000281158
    9       -0.0000000000304190
   10       -0.0000000000044165
   11        0.0000000000009773
   12       -0.0000000000003094
   13        0.0000000000001368
   14       -0.0000000000000314
   15        0.0000000000000122
   16       -0.0122079712507641
   17        0.0001426028890457
   18        0.0000000000000001
   19       -0.0858635612170911
   20        0.0010029833510570
   21        0.0000000000000009
   22       -0.2949097780258879
   23        0.0034448792048129
   24        0.0000000000000032
   25       -0.4784701787852225
   26        0.0055890718228123
   27        0.0000000000000054
   28       -0.2758965424759339
   29        0.0032227831284222
   30        0.0000000000000037
   31       -0.0313698125337306
   32        0.0003664342785390
   33        0.0000000000000003
   34       -0.0007336269247742
   35        0.0000085702137339
   36       -0.0000000000000001
   37        0.0005089291271197
   38       -0.0000059449589822
   39       -0.0000000000000002
   40       -0.0002101322083491
   41        0.0000024543228586
   42        0.0000000000000000
   43        0.0001430255737671
   44       -0.0000016704499034
   45       -0.0000000000000003
   46       -0.0000756756427836
   47        0.0000008838338181
   48        0.0000000000000002
   49        0.0000217354571742
   50       -0.0000002538548717
   51       -0.0000000000000005
   52       -0.0000000000000019
   53        0.0000024900247596
   54       -0.0000000290793304
   55       -0.0000000000206304
   56        0.0000000000067252
   57       -0.0000000000000112
   58        0.0000087202925488
   59       -0.0000001018203498
   60       -0.0000000002716773
   61        0.0000000001287534
   62       -0.0000000000000262
   63        0.0000041478976515
   64       -0.0000000482453396
   65       -0.0000000001025011
   66        0.0000000000739704
   67       -0.0000000000000257
   68        0.0000006239593039
   69       -0.0000000074920595
   70       -0.0000000000531940
   71       -0.0000000000397024
   72       -0.0000000000000047
   73        0.0000007637841511
   74       -0.0000000090130134
   75        0.0000000000858436
   76        0.0000000000411506
   77        0.0000000000000005
   78       -0.0000004297739645
   79        0.0000000050275116
   80        0.0000000001432441
   81        0.0000000000354474
   82        0.0000000000000000
   83       -0.0000001162256129
   84        0.0000000012991973
   85        0.0000000000074889
   86        0.0000000001444784
   87        0.0000000000000008
   88       -0.0000000000000010
Sym= A
 Ene=   -169.66132135980573
Spin= Alpha
Occup=  2.0000
    1        0.0000000000007082
    2        0.0000000000055940
    3        0.0000000000294267
    4        0.0000000001178237
    5        0.0000000003388603
    6        0.0000000006331446
    7        0.0000000002801954
    8       -0.0000000013175119
    9       -0.0000000014254382
   10       -0.0000000002069794
   11        0.0000000000457813
   12       -0.0000000000145024
   13        0.0000000000064087
   14       -0.0000000000014741
   15        0.0000000000005751
   16       -0.0001426028892750
   17       -0.0122079712507403
   18        0.0000000000000065
   19       -0.0010029833506252
   20       -0.0858635612169960
   21        0.0000000000000449
   22       -0.0034448792048539
   23       -0.2949097780253153
   24        0.0000000000001555
   25       -0.0055890718177374
   26       -0.4784701787844818
   27        0.0000000000002652
   28       -0.0032227831258859
   29       -0.2758965424745768
   30        0.0000000000001820
   31       -0.0003664342839453
   32       -0.0313698125425286
   33        0.0000000000000244
   34       -0.0000085702547986
   35       -0.0007336269142890
   36        0.0000000000000012
   37        0.0000059450288869
   38        0.0005089291192070
   39       -0.0000000000000021
   40       -0.0000024543208962
   41       -0.0002101322030883
   42        0.0000000000000035
   43        0.0000016705028879
   44        0.0001430255712744
   45       -0.0000000000000102
   46       -0.0000008842085937
   47       -0.0000756756429854
   48        0.0000000000000075
   49        0.0000002542306788
   50        0.0000217354573231
   51       -0.0000000000000232
   52        0.0000000000000016
   53        0.0000000289928696
   54        0.0000024900239642
   55       -0.0000000000217974
   56       -0.0000000000552454
   57       -0.0000000000000020
   58        0.0000001018116839
   59        0.0000087202912571
   60       -0.0000000001889855
   61       -0.0000000000205471
   62        0.0000000000000358
   63        0.0000000481685333
   64        0.0000041478983859
   65       -0.0000000000642291
   66       -0.0000000001492931
   67        0.0000000000000390
   68        0.0000000076302603
   69        0.0000006239593462
   70        0.0000000000093380
   71        0.0000000000082734
   72        0.0000000000000033
   73        0.0000000089460500
   74        0.0000007637827937
   75       -0.0000000000335089
   76       -0.0000000000087149
   77        0.0000000000000010
   78       -0.0000000049672833
   79       -0.0000004297749661
   80        0.0000000000142825
   81       -0.0000000000431215
   82        0.0000000000000081
   83       -0.0000000013973354
   84       -0.0000001162257562
   85       -0.0000000000045109
   86        0.0000000001279414
   87        0.0000000000000370
   88       -0.0000000000000519
Sym= A
 Ene=   -37.948088413382713
Spin= Alpha
Occup=  2.0000
    1        0.0001282065867375
    2        0.0010111949326527
    3        0.0053487285349640
    4        0.0214933140501071
    5        0.0636516794687815
    6        0.1239304651002398
    7        0.0649306988061926
    8       -0.4119347408213363
    9       -0.6068246357604939
   10        0.5670493553946354
   11        0.7344663711502167
   12        0.0777944314139992
   13       -0.0099904757015442
   14        0.0019433302351798
   15       -0.0007764455833313
   16       -0.0000000000228546
   17       -0.0000000000090581
   18        0.0000049137406463
   19       -0.0000000001666579
   20       -0.0000000000660527
   21        0.0000354625117463
   22       -0.0000000006087738
   23       -0.0000000002412790
   24        0.0001302440142574
   25       -0.0000000010881984
   26       -0.0000000004312952
   27        0.0002314437925289