[Molden Format]
[GTO]
    1 0
 s   6 1.00
      16.1195750    1.0000000000
       2.9362007    0.0000000000
       0.7946505    0.0000000000
       0.6362897    0.0000000000
       0.1478601    0.0000000000
       0.0480887    0.0000000000
 s   6 1.00
      16.1195750    0.0000000000
       2.9362007    1.0000000000
       0.7946505    0.0000000000
       0.6362897    0.0000000000
       0.1478601    0.0000000000
       0.0480887    0.0000000000
 s   6 1.00
      16.1195750    0.0000000000
       2.9362007    0.0000000000
       0.7946505    1.0000000000
       0.6362897    0.0000000000
       0.1478601    0.0000000000
       0.0480887    0.0000000000
 s   6 1.00
      16.1195750    0.0000000000
       2.9362007    0.0000000000
       0.7946505    0.0000000000
       0.6362897    1.0000000000
       0.1478601    0.0000000000
       0.0480887    0.0000000000
 s   6 1.00
      16.1195750    0.0000000000
       2.9362007    0.0000000000
       0.7946505    0.0000000000
       0.6362897    0.0000000000
       0.1478601    1.0000000000
       0.0480887    0.0000000000
 s   6 1.00
      16.1195750    0.0000000000
       2.9362007    0.0000000000
       0.7946505    0.0000000000
       0.6362897    0.0000000000
       0.1478601    0.0000000000
       0.0480887    1.0000000000
 p   3 1.00
       0.6362897    1.0000000000
       0.1478601    0.0000000000
       0.0480887    0.0000000000
 p   3 1.00
       0.6362897    0.0000000000
       0.1478601    1.0000000000
       0.0480887    0.0000000000
 p   3 1.00
       0.6362897    0.0000000000
       0.1478601    0.0000000000
       0.0480887    1.0000000000

    2 0
 s   3 1.00
       3.4252509    1.0000000000
       0.6239137    0.0000000000
       0.1688554    0.0000000000
 s   3 1.00
       3.4252509    0.0000000000
       0.6239137    1.0000000000
       0.1688554    0.0000000000
 s   3 1.00
       3.4252509    0.0000000000
       0.6239137    0.0000000000
       0.1688554    1.0000000000

*** Dalton interface to Molden, wave function type :
HF          14Jun22   00:27:52
[Atoms] AU
Li         1     3         0.0000000000         0.0000000000        -0.545857052
H          2     1         0.0000000000         0.0000000000         2.309057052
[5D7F]
[9G]
[MO]
Sym= A
 Ene=   -2.4054552155042934
Spin= Alpha
Occup=  2.0000
    1       -0.1597784099792786
    2       -0.4989223211178499
    3       -0.4362151743184963
    4       -0.0275398597277433
    5       -0.0382065633636084
    6        0.0077144200351675
    7        0.0000000000000000
    8       -0.0000000000000000
    9        0.0097896336058184
   10        0.0000000000000000
   11       -0.0000000000000000
   12       -0.0018372695043412
   13        0.0000000000000000
   14       -0.0000000000000000
   15       -0.0000224741321164
   16       -0.0006963376514944
   17       -0.0036106604654215
   18        0.0012007092304074
Sym= A
 Ene=  -0.30440760854360366
Spin= Alpha
Occup=  2.0000
    1        0.0195571038777337
    2        0.0696291677065929
    3        0.0721172537313898
    4        0.0532835459033569
    5       -0.0744121992016028
    6       -0.3109834163070938
    7       -0.0000000000000000
    8        0.0000000000000000
    9       -0.0516393508021632
   10       -0.0000000000000000
   11        0.0000000000000000
   12       -0.1136100958996471
   13       -0.0000000000000000
   14        0.0000000000000001
   15       -0.1208708541550835
   16       -0.0678050301148584
   17       -0.2526567462948038
   18       -0.4191684642979771
Sym= A
 Ene=    1.8356453481539498E-002
Spin= Alpha
Occup=  0.0000
    1        0.0137115117746748
    2        0.0388693663428327
    3        0.2235053163919800
    4       -0.1864904103823503
    5        0.2714551263302056
    6       -0.9266204740293720
    7       -0.0000000000000000
    8        0.0000000000000001
    9        0.0350162783048478
   10       -0.0000000000000001
   11        0.0000000000000001
   12        0.0707396719295962
   13       -0.0000000000000003
   14        0.0000000000000005
   15        0.6105415016508996
   16        0.0122349043075865
   17        0.0550468830584792
   18        0.0313889665698903
Sym= A
 Ene=    7.5106597343186726E-002
Spin= Alpha
Occup=  0.0000
    1       -0.0000000000000000
    2       -0.0000000000000000
    3       -0.0000000000000001
    4        0.0000000000000001
    5       -0.0000000000000000
    6        0.0000000000000002
    7       -0.0088748761705023
    8        0.0529973273344277
    9       -0.0000000000000001
   10        0.0043774537599405
   11       -0.0261435013927604
   12       -0.0000000000000001
   13       -0.1663458712644073
   14        0.9933536283125648
   15       -0.0000000000000006
   16        0.0000000000000000
   17        0.0000000000000001
   18        0.0000000000000002
Sym= A
 Ene=    7.5106597343186796E-002
Spin= Alpha
Occup=  0.0000
    1        0.0000000000000000
    2        0.0000000000000000
    3        0.0000000000000001
    4       -0.0000000000000000
    5       -0.0000000000000000
    6       -0.0000000000000003
    7        0.0529973273344839
    8        0.0088748756122333
    9        0.0000000000000000
   10       -0.0261435013928785
   11       -0.0043774532851461
   12        0.0000000000000000
   13        0.9933536283126342
   14        0.1663458710613967
   15        0.0000000000000001
   16        0.0000000000000000
   17        0.0000000000000001
   18        0.0000000000000001
Sym= A
 Ene=   0.19184146441508027
Spin= Alpha
Occup=  0.0000
    1        0.0001192395488624
    2        0.0099253374610224
    3       -0.1730539154859743
    4        0.2250225675282816
    5       -0.2912561515955586
    6        1.0989679412271762
    7        0.0000000000000000
    8        0.0000000000000000
    9       -0.0056565784566073
   10        0.0000000000000000
   11        0.0000000000000000
   12       -0.2391696353156171
   13        0.0000000000000001
   14        0.0000000000000002
   15        1.2241260375774718
   16       -0.0507293705169548
   17       -0.0027331116828687
   18       -1.0658159133410616
Sym= A
 Ene=   0.30265853191875908
Spin= Alpha
Occup=  0.0000
    1       -0.0278736002826831
    2       -0.1611519288704936
    3        1.0334286178742378
    4       -1.5880878711538076
    5        1.7835777256665080
    6       -1.2987437619712774
    7        0.0000000000000000
    8       -0.0000000000000000
    9       -0.0168633708906739
   10        0.0000000000000000
   11       -0.0000000000000000
   12       -0.9655383879653838
   13        0.0000000000000000
   14       -0.0000000000000001
   15        0.4485588768417067
   16        0.0046963082669862
   17       -0.0151728107987921
   18        0.3844558425288245
Sym= A
 Ene=   0.32731677876949017
Spin= Alpha
Occup=  0.0000
    1        0.0000000000000000
    2        0.0000000000000000
    3        0.0000000000000000
    4       -0.0000000000000000
    5        0.0000000000000000
    6       -0.0000000000000000
    7        0.0001693985307953
    8       -0.0409370863451559
    9        0.0000000000000000
   10        0.0055596555142486
   11       -1.3436361596547619
   12        0.0000000000000000
   13       -0.0039044792576664
   14        0.9437063324429558
   15        0.0000000000000001
   16       -0.0000000000000000
   17       -0.0000000000000000
   18       -0.0000000000000000
Sym= A
 Ene=   0.32731677876949045
Spin= Alpha
Occup=  0.0000
    1       -0.0000000000000000
    2       -0.0000000000000000
    3       -0.0000000000000000
    4        0.0000000000000000
    5       -0.0000000000000000
    6        0.0000000000000001
    7       -0.0409370863452686
    8       -0.0001693985258178
    9       -0.0000000000000000
   10       -1.3436361596547060
   11       -0.0055596555181076
   12       -0.0000000000000000
   13        0.9437063324408493
   14        0.0039044792717166
   15       -0.0000000000000000
   16       -0.0000000000000000
   17       -0.0000000000000000
   18       -0.0000000000000000
Sym= A
 Ene=   0.42050267634589344
Spin= Alpha
Occup=  0.0000
    1       -0.0220334774537863
    2       -0.1340789901953006
    3        0.9472484138899676
    4       -1.4537203836317898
    5        1.7484210527559905
    6       -0.2884812281647877
    7        0.0000000000000000
    8        0.0000000000000000
    9        0.0201501024224292
   10        0.0000000000000000
   11        0.0000000000000000
   12        1.2572739608807479
   13        0.0000000000000000
   14        0.0000000000000001
   15       -0.1541056183109872
   16       -0.0249844437735389
   17        0.0323734447846356
   18       -1.4050704329351715
Sym= A
 Ene=    1.0926204808627022
Spin= Alpha
Occup=  0.0000
    1       -0.0027656217913948
    2       -0.0371278679497584
    3        0.5534402301098285
    4       -0.7360587972096970
    5        0.1393908789873967
    6       -0.6070082868750831
    7        0.0000000000000000
    8        0.0000000000000000
    9       -0.1279368220569717
   10        0.0000000000000000
   11        0.0000000000000000
   12        0.1480342662452901
   13        0.0000000000000000
   14        0.0000000000000001
   15       -0.5461958718491269
   16       -0.0306621319770112
   17       -1.6080887066426339
   18        1.9645911059574175
Sym= A
 Ene=    1.3596317036689971
Spin= Alpha
Occup=  0.0000
    1        0.0142163438957279
    2        0.0121562397070512
    3        1.0400614463485778
    4       -1.2021253541825054
    5        0.1600918070260819
    6       -0.1767550797710918
    7       -0.0000000000000000
    8        0.0000000000000000
    9        1.2419774251764344
   10       -0.0000000000000000
   11        0.0000000000000000
   12       -1.1163136548998307
   13       -0.0000000000000000
   14        0.0000000000000000
   15        0.3571072727741375
   16       -0.0295609870690394
   17       -0.0475754636801592
   18        0.3101531475251175
Sym= A
 Ene=    1.3644113012942933
Spin= Alpha
Occup=  0.0000
    1       -0.0000000000000000
    2       -0.0000000000000000
    3       -0.0000000000000000
    4        0.0000000000000000
    5       -0.0000000000000000
    6        0.0000000000000000
    7       -0.0001301565598867
    8        1.2462255139694469
    9       -0.0000000000000000
   10        0.0001066400996960
   11       -1.0209589319616728
   12       -0.0000000000000000
   13       -0.0000444863848004
   14        0.4261115578505739
   15       -0.0000000000000000
   16        0.0000000000000000
   17        0.0000000000000000
   18        0.0000000000000000
Sym= A
 Ene=    1.3644113012942947
Spin= Alpha
Occup=  0.0000
    1        0.0000000000000000
    2        0.0000000000000000
    3        0.0000000000000000
    4       -0.0000000000000000
    5        0.0000000000000000
    6       -0.0000000000000000
    7        1.2462255139654670
    8        0.0001301565837914
    9        0.0000000000000000
   10       -1.0209589319597285
   11       -0.0001066401067753
   12        0.0000000000000000
   13        0.4261115577760000
   14        0.0000444868269431
   15        0.0000000000000000
   16        0.0000000000000000
   17        0.0000000000000000
   18        0.0000000000000000
Sym= A
 Ene=    1.6609824479452227
Spin= Alpha
Occup=  0.0000
    1        0.1068505987009791
    2        0.0370514150116457
    3        9.2120493112468509
    4      -10.8092348152996287
    5        2.2349022139232675
    6       -0.6726505208851183
    7       -0.0000000000000000
    8       -0.0000000000000000
    9       -0.1568872913820032
   10       -0.0000000000000000
   11       -0.0000000000000000
   12        0.2214132815666504
   13       -0.0000000000000000
   14       -0.0000000000000000
   15       -0.0142804210432402
   16        0.0220769071564188
   17       -0.0161680721894340
   18       -0.1978253786981726
Sym= A
 Ene=    5.5136082528461747
Spin= Alpha
Occup=  0.0000
    1       -0.1027041798087318
    2       -2.0034933021017252
    3       14.1781927556089258
    4      -13.1989718104797689
    5        1.2657581085602032
    6       -0.3817284742637698
    7       -0.0000000000000000
    8       -0.0000000000000000
    9        0.0044666588394817
   10       -0.0000000000000000
   11       -0.0000000000000000
   12        0.0308728516613844
   13       -0.0000000000000000
   14       -0.0000000000000000
   15       -0.0089894822658236
   16        0.2225332421334442
   17       -0.2119017316980187
   18        0.0484556845568202
Sym= A
 Ene=    5.8221446747307715
Spin= Alpha
Occup=  0.0000
    1        0.0161048451186919
    2        0.3720610630590365
    3       -2.9113381233970128
    4        2.7293895651217190
    5       -0.2902052066556077
    6       -0.1326236607218190
    7       -0.0000000000000000
    8       -0.0000000000000000
    9        0.0515106632354966
   10       -0.0000000000000000
   11       -0.0000000000000000
   12       -0.0262803559575206
   13       -0.0000000000000000
   14       -0.0000000000000000
   15       -0.1826310590855951
   16        1.3477335806365460
   17       -1.4192795047203428
   18        0.8732142500283125
Sym= A
 Ene=    24.648168623055540
Spin= Alpha
Occup=  0.0000
    1       -1.4228210418088001
    2        2.2299938987198717
    3       -7.1489311247013632
    4        6.2797254362908506
    5       -0.5412305817857591
    6        0.1500018804849648
    7        0.0000000000000000
    8       -0.0000000000000000
    9        0.0023606825137626
   10        0.0000000000000000
   11       -0.0000000000000000
   12       -0.0155236961252867
   13        0.0000000000000000
   14       -0.0000000000000000
   15       -0.0094123223499880
   16        0.0095289067032293
   17       -0.0160201554901982
   18        0.0432943580150739
