[Molden Format]
[GTO]
    1 0
 s   4 1.00
       6.1638450    1.0000000000
       1.0971610    0.0000000000
       0.2459160    0.0000000000
       0.0623710    0.0000000000
 s   4 1.00
       6.1638450    0.0000000000
       1.0971610    1.0000000000
       0.2459160    0.0000000000
       0.0623710    0.0000000000
 s   4 1.00
       6.1638450    0.0000000000
       1.0971610    0.0000000000
       0.2459160    1.0000000000
       0.0623710    0.0000000000
 s   4 1.00
       6.1638450    0.0000000000
       1.0971610    0.0000000000
       0.2459160    0.0000000000
       0.0623710    1.0000000000
 p   2 1.00
       0.2459160    1.0000000000
       0.0623710    0.0000000000
 p   2 1.00
       0.2459160    0.0000000000
       0.0623710    1.0000000000

    2 0
 s   2 1.00
       1.3097564    1.0000000000
       0.2331360    0.0000000000
 s   2 1.00
       1.3097564    0.0000000000
       0.2331360    1.0000000000

[SCFCONV]
scf-first  1  THROUGH   8
       -7.5822256991
       -7.6461953322
       -7.6495958040
       -7.6497147522
       -7.6497162391
       -7.6497163210
       -7.6497163269
       -7.6497163270
[TITLE]
*** Dalton interface to Molden, wave function type : HF            19Jan23   20:
[Atoms] AU
X          1     3         0.0000000000         0.0000000000        -0.545857052
H          2     1         0.0000000000         0.0000000000         2.309057052
[5D7F]
[9G]
[MO]
Sym= A
 Ene=   -2.3253570578764871
Spin= Alpha
Occup=  2.0000
           1 -0.39289074284632619
           2 -0.65828594083926928
           3  -8.6273578137152723E-002
           4   5.7389197387422873E-003
           5   2.0804566961716898E-019
           6  -2.0227851654773996E-017
           7   8.6010568569764457E-003
           8   1.7809530086312371E-018
           9  -1.7315839031404225E-016
          10  -1.7886491394791895E-003
          11  -2.6932690032356725E-003
          12  -4.0435558382724193E-003
Sym= A
 Ene=  -0.29717182054799085
Spin= Alpha
Occup=  2.0000
           1   5.0995287243628604E-002
           2  0.13424203694769665
           3   4.2544344096494102E-002
           4 -0.43445026223864319
           5  -7.2804357668370844E-018
           6  -2.4897423681280888E-018
           7 -0.11478893481231689
           8  -6.2323402390226602E-017
           9  -2.1313176906751894E-017
          10 -0.20040798927827330
          11 -0.18062563467451906
          12 -0.48160560310276762
Sym= A
 Ene=    3.5446510896291770E-002
Spin= Alpha
Occup=  0.0000
           1   4.4240640232743766E-002
           2   8.5281360727832531E-002
           3  0.20968995895056428
           4 -0.87253423227311511
           5  -8.5863347993023760E-017
           6  -1.3085790104918410E-016
           7   6.6012703931992128E-002
           8  -7.3502413302192961E-016
           9  -1.1201952581159592E-015
          10  0.63248751789929736
          11   3.8049772249875810E-002
          12   5.3440731732527044E-002
Sym= A
 Ene=    9.6443496552045857E-002
Spin= Alpha
Occup=  0.0000
           1   4.8005306038159153E-018
           2   4.2542461872363113E-017
           3   4.0052740941239146E-016
           4  -2.3525253737043615E-015
           5  -1.4888640340506986E-003
           6   4.3610452848414256E-002
           7  -1.5600966163729262E-016
           8  -3.3237082220098933E-002
           9  0.97355042087689281
          10  -5.9491311204118161E-016
          11   6.0659730141159493E-016
          12   1.4432422824194513E-015
Sym= A
 Ene=    9.6443496552046315E-002
Spin= Alpha
Occup=  0.0000
           1   5.5572283743762888E-017
           2   8.6752469034279232E-017
           3   1.9486564828353015E-016
           4  -1.0125219737756092E-015
           5   4.3610452848415249E-002
           6   1.4888640340506645E-003
           7   1.1451141744809015E-017
           8  0.97355042087689236
           9   3.3237082220098954E-002
          10   2.2919701534821602E-016
          11   1.3594021244188965E-016
          12   2.9521569548429372E-016
Sym= A
 Ene=   0.27558746876713114
Spin= Alpha
Occup=  0.0000
           1  -6.7171587264936456E-003
           2   3.4923210984763075E-003
           3 -0.20910012493603261
           4  0.97589352059488155
           5   2.5975488200360589E-017
           6   1.5114052416559525E-016
           7 -0.19168896559997278
           8   2.2236042666124103E-016
           9   1.2938225137496658E-015
          10   1.1449877359232792
          11  -7.7731254717066448E-002
          12  -1.1099974207084851
Sym= A
 Ene=   0.49356578400995493
Spin= Alpha
Occup=  0.0000
           1  -2.9605104067164473E-018
           2  -4.5578037777853896E-018
           3  -9.6829471818823400E-018
           4   4.9818792754086283E-017
           5  -1.2253262585517857
           6  -1.0408501303984320E-004
           7  -8.9570896535810243E-019
           8  0.74459613846660677
           9   6.3249520885410668E-005
          10  -1.3328558431724073E-017
          11  -6.1595829782491795E-018
          12  -1.3147388934451325E-017
Sym= A
 Ene=   0.49356578400995532
Spin= Alpha
Occup=  0.0000
           1  -3.5761165798951420E-019
           2  -2.4309099746186292E-018
           3  -2.1754882570619440E-017
           4   1.2753855692035394E-016
           5   1.0408501303984315E-004
           6  -1.2253262585517859
           7   8.3148111290727086E-018
           8  -6.3249520885411400E-005
           9  0.74459613846660611
          10   3.1369362024410480E-017
          11  -3.2658045331524309E-017
          12  -7.7650073691401478E-017
Sym= A
 Ene=   0.51436757553845891
Spin= Alpha
Occup=  0.0000
           1  -4.5072605115078296E-002
           2 -0.23855311356386447
           3  0.57274023396587004
           4 -0.66602606827475397
           5  -5.3436134250688877E-018
           6  -3.9363736968246889E-017
           7  -1.2319296870252523
           8  -4.5743439043218682E-017
           9  -3.3696911795169593E-016
          10  0.34166506642155670
          11   1.1488368430326884E-002
          12  0.69474123108438612
Sym= A
 Ene=   0.69614208614819473
Spin= Alpha
Occup=  0.0000
           1  0.13982785180876922
           2  0.78681012007993478
           3  -1.8241326135852041
           4  0.69769808629570895
           5  -4.3292958055173719E-018
           6  -1.9663573467505070E-017
           7 -0.40426521922928188
           8  -3.7060480058434210E-017
           9  -1.6832794641597430E-016
          10  -1.9111054567161306E-002
          11  -1.8706723093373685E-002
          12  0.51179252815257692
Sym= A
 Ene=    1.9265018126887254
Spin= Alpha
Occup=  0.0000
           1  -2.9312684637824278E-002
           2  -2.0942778206668854E-002
           3  -1.5120614180798844E-002
           4 -0.38398771029026946
           5   6.5703272054643882E-018
           6   3.8222176700203212E-017
           7  -5.1645143671598379E-002
           8   5.6244592957863339E-017
           9   3.2719691169694885E-016
          10 -0.35877512076063062
          11  -1.3173891878177622
          12   1.3700430772273020
Sym= A
 Ene=    6.3196953847803199
Spin= Alpha
Occup=  0.0000
           1   1.2629790802681007
           2  -1.5607758533488181
           3  0.87857515518916096
           4 -0.28246979141154727
           5  -8.3984087893816507E-019
           6   2.7648388737992791E-019
           7   1.6787345595287211E-002
           8  -7.1893692518031616E-018
           9   2.3668111524432315E-018
          10   1.0447769619096051E-002
          11  -4.5750009973064727E-002
          12  -1.7751960862909491E-002
[End of Molden output from Dalton]
