[Molden Format]
[GTO]
    1 0
 s  12 1.00
     900.4600000    1.0000000000
     134.4330000    0.0000000000
      30.4365000    0.0000000000
       8.6263900    0.0000000000
       4.8689000    0.0000000000
       2.4833200    0.0000000000
       0.8569240    0.0000000000
       0.3031790    0.0000000000
       0.2432270    0.0000000000
       0.0635070    0.0000000000
       0.0243683    0.0000000000
       0.0074000    0.0000000000
 s  12 1.00
     900.4600000    0.0000000000
     134.4330000    1.0000000000
      30.4365000    0.0000000000
       8.6263900    0.0000000000
       4.8689000    0.0000000000
       2.4833200    0.0000000000
       0.8569240    0.0000000000
       0.3031790    0.0000000000
       0.2432270    0.0000000000
       0.0635070    0.0000000000
       0.0243683    0.0000000000
       0.0074000    0.0000000000
 s  12 1.00
     900.4600000    0.0000000000
     134.4330000    0.0000000000
      30.4365000    1.0000000000
       8.6263900    0.0000000000
       4.8689000    0.0000000000
       2.4833200    0.0000000000
       0.8569240    0.0000000000
       0.3031790    0.0000000000
       0.2432270    0.0000000000
       0.0635070    0.0000000000
       0.0243683    0.0000000000
       0.0074000    0.0000000000
 s  12 1.00
     900.4600000    0.0000000000
     134.4330000    0.0000000000
      30.4365000    0.0000000000
       8.6263900    1.0000000000
       4.8689000    0.0000000000
       2.4833200    0.0000000000
       0.8569240    0.0000000000
       0.3031790    0.0000000000
       0.2432270    0.0000000000
       0.0635070    0.0000000000
       0.0243683    0.0000000000
       0.0074000    0.0000000000
 s  12 1.00
     900.4600000    0.0000000000
     134.4330000    0.0000000000
      30.4365000    0.0000000000
       8.6263900    0.0000000000
       4.8689000    1.0000000000
       2.4833200    0.0000000000
       0.8569240    0.0000000000
       0.3031790    0.0000000000
       0.2432270    0.0000000000
       0.0635070    0.0000000000
       0.0243683    0.0000000000
       0.0074000    0.0000000000
 s  12 1.00
     900.4600000    0.0000000000
     134.4330000    0.0000000000
      30.4365000    0.0000000000
       8.6263900    0.0000000000
       4.8689000    0.0000000000
       2.4833200    1.0000000000
       0.8569240    0.0000000000
       0.3031790    0.0000000000
       0.2432270    0.0000000000
       0.0635070    0.0000000000
       0.0243683    0.0000000000
       0.0074000    0.0000000000
 s  12 1.00
     900.4600000    0.0000000000
     134.4330000    0.0000000000
      30.4365000    0.0000000000
       8.6263900    0.0000000000
       4.8689000    0.0000000000
       2.4833200    0.0000000000
       0.8569240    1.0000000000
       0.3031790    0.0000000000
       0.2432270    0.0000000000
       0.0635070    0.0000000000
       0.0243683    0.0000000000
       0.0074000    0.0000000000
 s  12 1.00
     900.4600000    0.0000000000
     134.4330000    0.0000000000
      30.4365000    0.0000000000
       8.6263900    0.0000000000
       4.8689000    0.0000000000
       2.4833200    0.0000000000
       0.8569240    0.0000000000
       0.3031790    1.0000000000
       0.2432270    0.0000000000
       0.0635070    0.0000000000
       0.0243683    0.0000000000
       0.0074000    0.0000000000
 s  12 1.00
     900.4600000    0.0000000000
     134.4330000    0.0000000000
      30.4365000    0.0000000000
       8.6263900    0.0000000000
       4.8689000    0.0000000000
       2.4833200    0.0000000000
       0.8569240    0.0000000000
       0.3031790    0.0000000000
       0.2432270    1.0000000000
       0.0635070    0.0000000000
       0.0243683    0.0000000000
       0.0074000    0.0000000000
 s  12 1.00
     900.4600000    0.0000000000
     134.4330000    0.0000000000
      30.4365000    0.0000000000
       8.6263900    0.0000000000
       4.8689000    0.0000000000
       2.4833200    0.0000000000
       0.8569240    0.0000000000
       0.3031790    0.0000000000
       0.2432270    0.0000000000
       0.0635070    1.0000000000
       0.0243683    0.0000000000
       0.0074000    0.0000000000
 s  12 1.00
     900.4600000    0.0000000000
     134.4330000    0.0000000000
      30.4365000    0.0000000000
       8.6263900    0.0000000000
       4.8689000    0.0000000000
       2.4833200    0.0000000000
       0.8569240    0.0000000000
       0.3031790    0.0000000000
       0.2432270    0.0000000000
       0.0635070    0.0000000000
       0.0243683    1.0000000000
       0.0074000    0.0000000000
 s  12 1.00
     900.4600000    0.0000000000
     134.4330000    0.0000000000
      30.4365000    0.0000000000
       8.6263900    0.0000000000
       4.8689000    0.0000000000
       2.4833200    0.0000000000
       0.8569240    0.0000000000
       0.3031790    0.0000000000
       0.2432270    0.0000000000
       0.0635070    0.0000000000
       0.0243683    0.0000000000
       0.0074000    1.0000000000
 p   6 1.00
       4.8689000    1.0000000000
       0.8569240    0.0000000000
       0.2432270    0.0000000000
       0.0635070    0.0000000000
       0.0243683    0.0000000000
       0.0074000    0.0000000000
 p   6 1.00
       4.8689000    0.0000000000
       0.8569240    1.0000000000
       0.2432270    0.0000000000
       0.0635070    0.0000000000
       0.0243683    0.0000000000
       0.0074000    0.0000000000
 p   6 1.00
       4.8689000    0.0000000000
       0.8569240    0.0000000000
       0.2432270    1.0000000000
       0.0635070    0.0000000000
       0.0243683    0.0000000000
       0.0074000    0.0000000000
 p   6 1.00
       4.8689000    0.0000000000
       0.8569240    0.0000000000
       0.2432270    0.0000000000
       0.0635070    1.0000000000
       0.0243683    0.0000000000
       0.0074000    0.0000000000
 p   6 1.00
       4.8689000    0.0000000000
       0.8569240    0.0000000000
       0.2432270    0.0000000000
       0.0635070    0.0000000000
       0.0243683    1.0000000000
       0.0074000    0.0000000000
 p   6 1.00
       4.8689000    0.0000000000
       0.8569240    0.0000000000
       0.2432270    0.0000000000
       0.0635070    0.0000000000
       0.0243683    0.0000000000
       0.0074000    1.0000000000
 d   1 1.00
       0.2000000    1.0000000000

    2 0
 s   6 1.00
      33.8650000    1.0000000000
       5.0947900    0.0000000000
       1.1587900    0.0000000000
       0.3258400    0.0000000000
       0.1027410    0.0000000000
       0.0360000    0.0000000000
 s   6 1.00
      33.8650000    0.0000000000
       5.0947900    1.0000000000
       1.1587900    0.0000000000
       0.3258400    0.0000000000
       0.1027410    0.0000000000
       0.0360000    0.0000000000
 s   6 1.00
      33.8650000    0.0000000000
       5.0947900    0.0000000000
       1.1587900    1.0000000000
       0.3258400    0.0000000000
       0.1027410    0.0000000000
       0.0360000    0.0000000000
 s   6 1.00
      33.8650000    0.0000000000
       5.0947900    0.0000000000
       1.1587900    0.0000000000
       0.3258400    1.0000000000
       0.1027410    0.0000000000
       0.0360000    0.0000000000
 s   6 1.00
      33.8650000    0.0000000000
       5.0947900    0.0000000000
       1.1587900    0.0000000000
       0.3258400    0.0000000000
       0.1027410    1.0000000000
       0.0360000    0.0000000000
 s   6 1.00
      33.8650000    0.0000000000
       5.0947900    0.0000000000
       1.1587900    0.0000000000
       0.3258400    0.0000000000
       0.1027410    0.0000000000
       0.0360000    1.0000000000
 p   1 1.00
       0.7500000    1.0000000000

*** Dalton interface to Molden, wave function type :
HF          14Jun22   00:31:13
[Atoms] AU
Li         1     3         0.0000000000         0.0000000000        -0.545857052
H          2     1         0.0000000000         0.0000000000         2.309057052
[5D7F]
[9G]
[MO]
Sym= A
 Ene=   -2.4382242850429527
Spin= Alpha
Occup=  2.0000
    1       -0.0014122860770149
    2       -0.0108462656042804
    3       -0.0540296527700804
    4       -0.1715363873928061
    5       -0.0439947269697435
    6       -0.4022368052621160
    7       -0.4078205290284794
    8       -0.0656482521050706
    9       -0.0070633680018293
   10        0.0035083949344981
   11       -0.0015461082050173
   12        0.0004394562923532
   13        0.0000000000000000
   14        0.0000000000000000
   15        0.0010622588412326
   16        0.0000000000000000
   17        0.0000000000000000
   18        0.0083086147944838
   19        0.0000000000000000
   20        0.0000000000000000
   21        0.0019299063326295
   22        0.0000000000000000
   23        0.0000000000000001
   24       -0.0003150185455874
   25        0.0000000000000000
   26        0.0000000000000001
   27        0.0002974133055811
   28        0.0000000000000000
   29        0.0000000000000000
   30       -0.0000647645641057
   31        0.0000411580035741
   32       -0.0000000000000000
   33       -0.0000000000000000
   34        0.0000000000000000
   35        0.0000000000000000
   36       -0.0000684430685872
   37       -0.0003254862031276
   38       -0.0017298880819327
   39       -0.0026149794023277
   40       -0.0005609078746442
   41       -0.0002943347026686
   42        0.0000000000000000
   43        0.0000000000000000
   44        0.0012621383425904
Sym= A
 Ene=  -0.30630778949707715
Spin= Alpha
Occup=  2.0000
    1        0.0001652925077737
    2        0.0012851580303491
    3        0.0063871206576596
    4        0.0219877747681257
    5        0.0035507871584972
    6        0.0593466178972700
    7        0.0832426567153632
    8        0.2030023839877470
    9       -0.2171355702197174
   10       -0.2112427825903317
   11       -0.0204105951711421
   12       -0.0008268050481277
   13        0.0000000000000000
   14       -0.0000000000000000
   15       -0.0043677611761600
   16        0.0000000000000000
   17       -0.0000000000000000
   18       -0.0241813326747787
   19        0.0000000000000000
   20       -0.0000000000000000
   21       -0.1059035404818379
   22        0.0000000000000000
   23       -0.0000000000000000
   24       -0.1068631433022591
   25        0.0000000000000000
   26       -0.0000000000000000
   27        0.0124682281856842
   28        0.0000000000000000
   29       -0.0000000000000000
   30       -0.0048525081662416
   31       -0.0220351864542130
   32       -0.0000000000000000
   33        0.0000000000000000
   34       -0.0000000000000000
   35        0.0000000000000000
   36       -0.0047050605883413
   37       -0.0346030043245109
   38       -0.1390973444441964
   39       -0.3186086966779466
   40       -0.2972337082646901
   41       -0.0616238763208423
   42        0.0000000000000000
   43       -0.0000000000000000
   44        0.0109889141081244
Sym= A
 Ene=   -6.3406252164485491E-003
Spin= Alpha
Occup=  0.0000
    1        0.0000560831526619
    2        0.0004314530874091
    3        0.0021809600867949
    4        0.0071338797823199
    5        0.0019682008283684
    6        0.0187749255646031
    7        0.0292403284789332
    8        0.0409103800931003
    9       -0.0229744076640854
   10       -0.0504507482139899
   11        0.2202267276394514
   12       -0.7024545288688953
   13        0.0000000000000000
   14       -0.0000000000000000
   15        0.0018322593440605
   16        0.0000000000000000
   17       -0.0000000000000000
   18        0.0097248085858515
   19        0.0000000000000001
   20       -0.0000000000000000
   21        0.0380292462851884
   22        0.0000000000000001
   23       -0.0000000000000000
   24        0.1721294122335995
   25        0.0000000000000001
   26       -0.0000000000000000
   27        0.3804275993036192
   28        0.0000000000000000
   29       -0.0000000000000000
   30        0.3171761529383614
   31       -0.0063953820074845
   32       -0.0000000000000000
   33        0.0000000000000000
   34        0.0000000000000000
   35        0.0000000000000000
   36        0.0006300058120613
   37        0.0044821585164774
   38        0.0192329724942079
   39        0.0418919481873934
   40        0.0571072074037865
   41       -0.3731583930594908
   42        0.0000000000000000
   43       -0.0000000000000000
   44       -0.0012897186770365
Sym= A
 Ene=    1.5318291524013528E-002
Spin= Alpha
Occup=  0.0000
    1        0.0000000000000000
    2        0.0000000000000000
    3        0.0000000000000000
    4        0.0000000000000000
    5       -0.0000000000000000
    6        0.0000000000000000
    7        0.0000000000000000
    8        0.0000000000000000
    9       -0.0000000000000000
   10       -0.0000000000000001
   11       -0.0000000000000001
   12        0.0000000000000000
   13       -0.0004547604249861
   14        0.0000002035069272
   15        0.0000000000000000
   16       -0.0050707336855769
   17        0.0000023815915285
   18        0.0000000000000000
   19       -0.0019700786549104
   20        0.0000004611658172
   21        0.0000000000000000
   22       -0.1167628368612599
   23        0.0000559134944156
   24        0.0000000000000000
   25        0.2214041297254879
   26       -0.0001071202108006
   27        0.0000000000000000
   28       -1.1054569242472945
   29        0.0005182256616986
   30        0.0000000000000000
   31        0.0000000000000000
   32        0.0060383830851948
   33       -0.0000028708232217
   34        0.0000000000000000
   35        0.0000000000000000
   36        0.0000000000000000
   37        0.0000000000000000
   38        0.0000000000000000
   39        0.0000000000000000
   40        0.0000000000000000
   41        0.0000000000000000
   42       -0.0016361553567946
   43        0.0000007687484542
   44        0.0000000000000000
Sym= A
 Ene=    1.5318291524130870E-002
Spin= Alpha
Occup=  0.0000
    1       -0.0000000000000000
    2       -0.0000000000000000
    3       -0.0000000000000000
    4       -0.0000000000000000
    5       -0.0000000000000000
    6       -0.0000000000000000
    7       -0.0000000000000000
    8        0.0000000000000000
    9       -0.0000000000000000
   10       -0.0000000000000000
   11       -0.0000000000000000
   12        0.0000000000000000
   13       -0.0000002086580054
   14       -0.0004547604303152
   15        0.0000000000000000
   16       -0.0000023529137628
   17       -0.0050707337138123
   18       -0.0000000000000000
   19       -0.0000006451878861
   20       -0.0019700787851070
   21       -0.0000000000000000
   22       -0.0000548774608351
   23       -0.1167628370745057
   24       -0.0000000000000000
   25        0.0001073771459423
   26        0.2214041281404825
   27       -0.0000000000000000
   28       -0.0005186499700525
   29       -1.1054569232253975
   30       -0.0000000000000000
   31        0.0000000000000000
   32        0.0000027536519429
   33        0.0060383831179797
   34       -0.0000000000000000
   35        0.0000000000000000
   36        0.0000000000000000
   37        0.0000000000000000
   38        0.0000000000000000
   39        0.0000000000000000
   40        0.0000000000000000
   41       -0.0000000000000000
   42       -0.0000007444353010
   43       -0.0016361553647883
   44       -0.0000000000000000
Sym= A
 Ene=    2.3847504634804957E-002
Spin= Alpha
Occup=  0.0000
    1       -0.0000487096054224
    2       -0.0004067653941438
    3       -0.0017849211287470
    4       -0.0084057068280437
    5        0.0039323846526838
    6       -0.0255841499647759
    7       -0.0056431220921319
    8       -0.2494618379653819
    9        0.2695589326605013
   10       -0.1760487862200394
   11        0.7558008213379308
   12       -0.3788260367666126
   13       -0.0000000000000000
   14       -0.0000000000000000
   15       -0.0020296729933371
   16       -0.0000000000000000
   17       -0.0000000000000000
   18       -0.0054855672519045
   19       -0.0000000000000000
   20       -0.0000000000000000
   21       -0.0585652555167105
   22       -0.0000000000000001
   23       -0.0000000000000000
   24       -0.0166876943230137
   25       -0.0000000000000001
   26       -0.0000000000000000
   27       -0.7580552123970625
   28       -0.0000000000000000
   29       -0.0000000000000000
   30        1.1688215514970113
   31        0.0089500420161431
   32        0.0000000000000000
   33        0.0000000000000000
   34        0.0000000000000000
   35        0.0000000000000000
   36       -0.0005900717245229
   37       -0.0046381275513189
   38       -0.0171263070301858
   39       -0.0515212835137185
   40       -0.0443538165747301
   41        0.0760997923850035
   42       -0.0000000000000000
   43       -0.0000000000000000
   44        0.0010564970494819
Sym= A
 Ene=    2.7495931170817441E-002
Spin= Alpha
Occup=  0.0000
    1        0.0000535848879138
    2        0.0004859242717688
    3        0.0018330341180809
    4        0.0119083619790684
    5       -0.0111132490461008
    6        0.0394083066521116
    7       -0.0174034839019628
    8        0.5342613089663998
    9       -0.6080048068197145
   10        0.4825278931350255
   11       -1.4327698296149671
   12        1.4974391369609930
   13        0.0000000000000000
   14       -0.0000000000000000
   15        0.0009852767928012
   16        0.0000000000000000
   17       -0.0000000000000000
   18        0.0063424667776977
   19        0.0000000000000000
   20       -0.0000000000000000
   21        0.0159916813699892
   22        0.0000000000000001
   23       -0.0000000000000000
   24        0.2055804179097106
   25        0.0000000000000000
   26       -0.0000000000000000
   27        0.1034924246784390
   28        0.0000000000000000
   29       -0.0000000000000000
   30        0.3676044561816100
   31       -0.0037951930243749
   32       -0.0000000000000000
   33        0.0000000000000000
   34        0.0000000000000000
   35        0.0000000000000000
   36        0.0001042878884949
   37        0.0005387230250127
   38        0.0038374058825706
   39        0.0076460490310244
   40       -0.0542883307080027
   41       -0.1322955377212497
   42        0.0000000000000000
   43       -0.0000000000000000
   44       -0.0005208037478649
Sym= A
 Ene=    5.7939304924015333E-002
Spin= Alpha
Occup=  0.0000
    1        0.0000000000000000
    2        0.0000000000000000
    3        0.0000000000000000
    4        0.0000000000000000
    5       -0.0000000000000000
    6        0.0000000000000000
    7        0.0000000000000000
    8        0.0000000000000001
    9       -0.0000000000000001
   10       -0.0000000000000002
   11       -0.0000000000000001
   12        0.0000000000000000
   13       -0.0030170405236707
   14        0.0000045976990416
   15        0.0000000000000000
   16       -0.0043513039341185
   17        0.0000066314369892
   18        0.0000000000000000
   19       -0.0970949606946215
   20        0.0001482069360063
   21        0.0000000000000000
   22        0.1192287155345668
   23       -0.0001823300516690
   24        0.0000000000000000
   25       -1.4008545882948022
   26        0.0021390083535606
   27        0.0000000000000000
   28        0.8141493858520622
   29       -0.0012459116457039
   30        0.0000000000000000
   31        0.0000000000000000
   32        0.0233113492622874
   33       -0.0000355643373541
   34        0.0000000000000000
   35        0.0000000000000000
   36        0.0000000000000000
   37        0.0000000000000000
   38        0.0000000000000000
   39        0.0000000000000001
   40        0.0000000000000000
   41        0.0000000000000000
   42       -0.0071206498596252
   43        0.0000108649111910
   44        0.0000000000000000
Sym= A
 Ene=    5.7939304924650929E-002
Spin= Alpha
Occup=  0.0000
    1       -0.0000000000000000
    2       -0.0000000000000000
    3       -0.0000000000000000
    4       -0.0000000000000000
    5       -0.0000000000000000
    6       -0.0000000000000000
    7       -0.0000000000000000
    8        0.0000000000000000
    9       -0.0000000000000000
   10       -0.0000000000000001
   11       -0.0000000000000000
   12        0.0000000000000000
   13       -0.0000046169152519
   14       -0.0030170399928751
   15        0.0000000000000000
   16       -0.0000067437258847
   17       -0.0043513042048350
   18       -0.0000000000000000
   19       -0.0001484228573160
   20       -0.0970949431333087
   21       -0.0000000000000000
   22        0.0001791868573639
   23        0.1192286970795823
   24       -0.0000000000000001
   25       -0.0021356958284215
   26       -1.4008545778228620
   27       -0.0000000000000000
   28        0.0012439070748260
   29        0.8141493834432999
   30       -0.0000000000000000
   31        0.0000000000000000
   32        0.0000358233068816
   33        0.0233113416233831
   34       -0.0000000000000000
   35        0.0000000000000000
   36        0.0000000000000000
   37        0.0000000000000000
   38        0.0000000000000000
   39        0.0000000000000001
   40        0.0000000000000001
   41       -0.0000000000000000
   42       -0.0000108895372393
   43       -0.0071206497218187
   44       -0.0000000000000000
Sym= A
 Ene=    7.8399645863434161E-002
Spin= Alpha
Occup=  0.0000
    1       -0.0000115144388492
    2       -0.0000978131205655
    3       -0.0004156461701486
    4       -0.0020841442481494
    5        0.0011669134631427
    6       -0.0062484877800353
    7       -0.0014691830672806
    8       -0.0426866304246356
    9        0.0359254999722879
   10       -0.1251195298273599
   11        4.9221270922273739
   12       -0.6366226083354679
   13       -0.0000000000000000
   14       -0.0000000000000000
   15       -0.0011914763258743
   16       -0.0000000000000000
   17       -0.0000000000000000
   18       -0.0063325091729378
   19       -0.0000000000000000
   20       -0.0000000000000000
   21       -0.0327503827849115
   22       -0.0000000000000000
   23       -0.0000000000000000
   24       -0.4029065752486364
   25       -0.0000000000000000
   26       -0.0000000000000000
   27        3.2744519804891818
   28       -0.0000000000000000
   29       -0.0000000000000000
   30       -0.7245953959381987
   31       -0.0415776536744127
   32        0.0000000000000000
   33        0.0000000000000000
   34        0.0000000000000000
   35        0.0000000000000000
   36       -0.0007861404266574
   37       -0.0093244828795507
   38       -0.0136121583109861
   39       -0.1506499669068887
   40        0.6138768649619254
   41       -5.0136472994269425
   42       -0.0000000000000000
   43       -0.0000000000000000
   44       -0.0046358146761840
Sym= A
 Ene=   0.13164023174316619
Spin= Alpha
Occup=  0.0000
    1        0.0001601946387585
    2        0.0009923020159242
    3        0.0070629713116311
    4        0.0038531503447061
    5        0.0483445421426900
    6       -0.0158567653682206
    7        0.2447989808281529
    8       -1.5785644663524590
    9        1.9646218669102451
   10       -2.3997900682490649
   11        3.3159598901991507
   12       -0.8647115744145427
   13        0.0000000000000000
   14       -0.0000000000000000
   15        0.0027818987827686
   16        0.0000000000000000
   17       -0.0000000000000000
   18        0.0274147050669049
   19        0.0000000000000000
   20       -0.0000000000000000
   21        0.0229142908401580
   22        0.0000000000000000
   23       -0.0000000000000000
   24        1.0572940845860177
   25        0.0000000000000000
   26       -0.0000000000000000
   27       -0.6415359118751522
   28        0.0000000000000000
   29       -0.0000000000000000
   30        0.3080057380310764
   31       -0.0215890761546437
   32       -0.0000000000000000
   33        0.0000000000000000
   34       -0.0000000000000000
   35        0.0000000000000000
   36        0.0003519580401245
   37        0.0026241825636421
   38        0.0090130941104316
   39        0.0229998198019821
   40        0.0126946417069812
   41       -1.0393202341495493
   42        0.0000000000000000
   43       -0.0000000000000000
   44        0.0004746450544804
Sym= A
 Ene=   0.16607380879142686
Spin= Alpha
Occup=  0.0000
    1       -0.0000843407489871
    2       -0.0004762860080471
    3       -0.0038814685539736
    4        0.0011642128475603
    5       -0.0338704664929597
    6        0.0221585377155221
    7       -0.1651794397240395
    8        1.1997410589818573
    9       -1.4694546745946773
   10        1.8396579755797504
   11        2.5951671929485824
   12        0.2144678683029548
   13        0.0000000000000000
   14        0.0000000000000000
   15        0.0005619323205636
   16        0.0000000000000000
   17        0.0000000000000000
   18        0.0296231810449182
   19        0.0000000000000000
   20        0.0000000000000000
   21       -0.0537511530133844
   22        0.0000000000000000
   23        0.0000000000000000
   24        0.7386490446620930
   25        0.0000000000000000
   26        0.0000000000000000
   27        1.1808708543668562
   28        0.0000000000000000
   29        0.0000000000000000
   30        0.1431274760401334
   31       -0.0082331653528258
   32       -0.0000000000000000
   33       -0.0000000000000000
   34       -0.0000000000000000
   35        0.0000000000000000
   36        0.0012279620954914
   37        0.0021185391994725
   38        0.0580202697745982
   39       -0.0914663732153786
   40        0.7692286582054398
   41       -5.4690223488349980
   42        0.0000000000000000
   43        0.0000000000000000
   44       -0.0218097579166047
Sym= A
 Ene=   0.16741862055393109
Spin= Alpha
Occup=  0.0000
    1        0.0000000000000000
    2        0.0000000000000000
    3        0.0000000000000000
    4        0.0000000000000000
    5       -0.0000000000000000
    6        0.0000000000000000
    7        0.0000000000000000
    8        0.0000000000000000
    9       -0.0000000000000000
   10       -0.0000000000000001
   11       -0.0000000000000001
   12        0.0000000000000000
   13       -0.0043902488549155
   14        0.0000019578346320
   15        0.0000000000000000
   16       -0.0533795900860451
   17        0.0000235012786610
   18        0.0000000000000000
   19       -0.0139349241510953
   20        0.0000071929056127
   21        0.0000000000000000
   22       -1.6445875289027021
   23        0.0007248133489200
   24        0.0000000000000000
   25        1.6376568407159497
   26       -0.0007195747294826
   27        0.0000000000000000
   28       -0.5219925408823530
   29        0.0002286528966744
   30        0.0000000000000000
   31        0.0000000000000000
   32        0.0554560550170919
   33       -0.0000244706610377
   34        0.0000000000000000
   35        0.0000000000000000
   36        0.0000000000000000
   37        0.0000000000000000
   38        0.0000000000000000
   39        0.0000000000000000
   40        0.0000000000000000
   41        0.0000000000000000
   42       -0.0085044238139979
   43        0.0000037341257185
   44        0.0000000000000000
Sym= A
 Ene=   0.16741862055418166
Spin= Alpha
Occup=  0.0000
    1       -0.0000000000000000
    2       -0.0000000000000000
    3       -0.0000000000000000
    4       -0.0000000000000000
    5       -0.0000000000000000
    6       -0.0000000000000000
    7       -0.0000000000000000
    8        0.0000000000000000
    9       -0.0000000000000000
   10       -0.0000000000000000
   11       -0.0000000000000000
   12        0.0000000000000000
   13       -0.0000019403978990
   14       -0.0043902488640915
   15        0.0000000000000000
   16       -0.0000235840686939
   17       -0.0533795900985479
   18       -0.0000000000000000
   19       -0.0000061925538528
   20       -0.0139349244519735
   21       -0.0000000000000000
   22       -0.0007259467241607
   23       -1.6445875285088307
   24       -0.0000000000000000
   25        0.0007229626593417
   26        1.6376568364417636
   27       -0.0000000000000000
   28       -0.0002309718491714
   29       -0.5219925381607449
   30       -0.0000000000000000
   31        0.0000000000000000
   32        0.0000244798497531
   33        0.0554560550846075
   34       -0.0000000000000000
   35        0.0000000000000000
   36        0.0000000000000000
   37        0.0000000000000000
   38        0.0000000000000000
   39        0.0000000000000000
   40        0.0000000000000000
   41       -0.0000000000000000
   42       -0.0000037611067605
   43       -0.0085044238332837
   44       -0.0000000000000000
Sym= A
 Ene=   0.26298863883133800
Spin= Alpha
Occup=  0.0000
    1       -0.0000622079736275
    2       -0.0003342670904629
    3       -0.0029205503551991
    4        0.0020133654627071
    5       -0.0278298344380879
    6        0.0207439173992280
    7       -0.1303271499138349
    8        1.0974637800574121
    9       -1.3603529683563600
   10        2.5405674779931884
   11       -3.6591595144435218
   12        0.3245837520697470
   13       -0.0000000000000000
   14       -0.0000000000000000
   15       -0.0011157388251743
   16       -0.0000000000000000
   17       -0.0000000000000000
   18        0.0200884497096117
   19       -0.0000000000000000
   20       -0.0000000000000000
   21       -0.1018159500325520
   22       -0.0000000000000000
   23       -0.0000000000000001
   24        2.3365642789945844
   25       -0.0000000000000000
   26       -0.0000000000000000
   27       -2.3266891408927890
   28       -0.0000000000000000
   29       -0.0000000000000000
   30        0.3312056842932102
   31       -0.0472310554741439
   32        0.0000000000000000
   33        0.0000000000000000
   34        0.0000000000000000
   35        0.0000000000000000
   36       -0.0027336462547324
   37       -0.0087801067008944
   38       -0.1215606779202839
   39        0.1972976347394295
   40       -3.3383825733475438
   41        4.1136079544968913
   42       -0.0000000000000000
   43       -0.0000000000000000
   44       -0.0033966602007355
Sym= A
 Ene=   0.51529370976995448
Spin= Alpha
Occup=  0.0000