[Molden Format]
[GTO]
    1 0
 s  11 1.00
    5988.0000000    1.0000000000
     898.9000000    0.0000000000
     205.9000000    0.0000000000
      59.2400000    0.0000000000
      19.8700000    0.0000000000
       7.4060000    0.0000000000
       2.9300000    0.0000000000
       1.1890000    0.0000000000
       0.4798000    0.0000000000
       0.0750900    0.0000000000
       0.0283200    0.0000000000
 s  11 1.00
    5988.0000000    0.0000000000
     898.9000000    1.0000000000
     205.9000000    0.0000000000
      59.2400000    0.0000000000
      19.8700000    0.0000000000
       7.4060000    0.0000000000
       2.9300000    0.0000000000
       1.1890000    0.0000000000
       0.4798000    0.0000000000
       0.0750900    0.0000000000
       0.0283200    0.0000000000
 s  11 1.00
    5988.0000000    0.0000000000
     898.9000000    0.0000000000
     205.9000000    1.0000000000
      59.2400000    0.0000000000
      19.8700000    0.0000000000
       7.4060000    0.0000000000
       2.9300000    0.0000000000
       1.1890000    0.0000000000
       0.4798000    0.0000000000
       0.0750900    0.0000000000
       0.0283200    0.0000000000
 s  11 1.00
    5988.0000000    0.0000000000
     898.9000000    0.0000000000
     205.9000000    0.0000000000
      59.2400000    1.0000000000
      19.8700000    0.0000000000
       7.4060000    0.0000000000
       2.9300000    0.0000000000
       1.1890000    0.0000000000
       0.4798000    0.0000000000
       0.0750900    0.0000000000
       0.0283200    0.0000000000
 s  11 1.00
    5988.0000000    0.0000000000
     898.9000000    0.0000000000
     205.9000000    0.0000000000
      59.2400000    0.0000000000
      19.8700000    1.0000000000
       7.4060000    0.0000000000
       2.9300000    0.0000000000
       1.1890000    0.0000000000
       0.4798000    0.0000000000
       0.0750900    0.0000000000
       0.0283200    0.0000000000
 s  11 1.00
    5988.0000000    0.0000000000
     898.9000000    0.0000000000
     205.9000000    0.0000000000
      59.2400000    0.0000000000
      19.8700000    0.0000000000
       7.4060000    1.0000000000
       2.9300000    0.0000000000
       1.1890000    0.0000000000
       0.4798000    0.0000000000
       0.0750900    0.0000000000
       0.0283200    0.0000000000
 s  11 1.00
    5988.0000000    0.0000000000
     898.9000000    0.0000000000
     205.9000000    0.0000000000
      59.2400000    0.0000000000
      19.8700000    0.0000000000
       7.4060000    0.0000000000
       2.9300000    1.0000000000
       1.1890000    0.0000000000
       0.4798000    0.0000000000
       0.0750900    0.0000000000
       0.0283200    0.0000000000
 s  11 1.00
    5988.0000000    0.0000000000
     898.9000000    0.0000000000
     205.9000000    0.0000000000
      59.2400000    0.0000000000
      19.8700000    0.0000000000
       7.4060000    0.0000000000
       2.9300000    0.0000000000
       1.1890000    1.0000000000
       0.4798000    0.0000000000
       0.0750900    0.0000000000
       0.0283200    0.0000000000
 s  11 1.00
    5988.0000000    0.0000000000
     898.9000000    0.0000000000
     205.9000000    0.0000000000
      59.2400000    0.0000000000
      19.8700000    0.0000000000
       7.4060000    0.0000000000
       2.9300000    0.0000000000
       1.1890000    0.0000000000
       0.4798000    1.0000000000
       0.0750900    0.0000000000
       0.0283200    0.0000000000
 s  11 1.00
    5988.0000000    0.0000000000
     898.9000000    0.0000000000
     205.9000000    0.0000000000
      59.2400000    0.0000000000
      19.8700000    0.0000000000
       7.4060000    0.0000000000
       2.9300000    0.0000000000
       1.1890000    0.0000000000
       0.4798000    0.0000000000
       0.0750900    1.0000000000
       0.0283200    0.0000000000
 s  11 1.00
    5988.0000000    0.0000000000
     898.9000000    0.0000000000
     205.9000000    0.0000000000
      59.2400000    0.0000000000
      19.8700000    0.0000000000
       7.4060000    0.0000000000
       2.9300000    0.0000000000
       1.1890000    0.0000000000
       0.4798000    0.0000000000
       0.0750900    0.0000000000
       0.0283200    1.0000000000
 p   5 1.00
       3.2660000    1.0000000000
       0.6511000    0.0000000000
       0.1696000    0.0000000000
       0.0557800    0.0000000000
       0.0205000    0.0000000000
 p   5 1.00
       3.2660000    0.0000000000
       0.6511000    1.0000000000
       0.1696000    0.0000000000
       0.0557800    0.0000000000
       0.0205000    0.0000000000
 p   5 1.00
       3.2660000    0.0000000000
       0.6511000    0.0000000000
       0.1696000    1.0000000000
       0.0557800    0.0000000000
       0.0205000    0.0000000000
 p   5 1.00
       3.2660000    0.0000000000
       0.6511000    0.0000000000
       0.1696000    0.0000000000
       0.0557800    1.0000000000
       0.0205000    0.0000000000
 p   5 1.00
       3.2660000    0.0000000000
       0.6511000    0.0000000000
       0.1696000    0.0000000000
       0.0557800    0.0000000000
       0.0205000    1.0000000000
 d   2 1.00
       0.1874000    1.0000000000
       0.0801000    0.0000000000
 d   2 1.00
       0.1874000    0.0000000000
       0.0801000    1.0000000000
 f   1 1.00
       0.1829000    1.0000000000

    2 0
 s   5 1.00
      33.8700000    1.0000000000
       5.0950000    0.0000000000
       1.1590000    0.0000000000
       0.3258000    0.0000000000
       0.1027000    0.0000000000
 s   5 1.00
      33.8700000    0.0000000000
       5.0950000    1.0000000000
       1.1590000    0.0000000000
       0.3258000    0.0000000000
       0.1027000    0.0000000000
 s   5 1.00
      33.8700000    0.0000000000
       5.0950000    0.0000000000
       1.1590000    1.0000000000
       0.3258000    0.0000000000
       0.1027000    0.0000000000
 s   5 1.00
      33.8700000    0.0000000000
       5.0950000    0.0000000000
       1.1590000    0.0000000000
       0.3258000    1.0000000000
       0.1027000    0.0000000000
 s   5 1.00
      33.8700000    0.0000000000
       5.0950000    0.0000000000
       1.1590000    0.0000000000
       0.3258000    0.0000000000
       0.1027000    1.0000000000
 p   2 1.00
       1.4070000    1.0000000000
       0.3880000    0.0000000000
 p   2 1.00
       1.4070000    0.0000000000
       0.3880000    1.0000000000
 d   1 1.00
       1.0570000    1.0000000000

*** Dalton interface to Molden, wave function type :
HF          14Jul22   23:48:52
[Atoms] AU
Li         1     3         0.0000000000         0.0000000000        -0.545857052
H          2     1         0.0000000000         0.0000000000         2.309057052
[5D7F]
[9G]
[MO]
Sym= A
 Ene=   -2.4382182903914416
Spin= Alpha
Occup=  2.0000
    1       -0.0001325052230965
    2       -0.0010240187534593
    3       -0.0052653848496986
    4       -0.0209061294874600
    5       -0.0662556151513728
    6       -0.1655910166518696
    7       -0.3145619389403786
    8       -0.3923277603750429
    9       -0.1923336622021480
   10       -0.0044581343914686
   11        0.0010993518374505
   12       -0.0000000000000000
   13        0.0000000000000000
   14        0.0020304506715642
   15        0.0000000000000000
   16       -0.0000000000000000
   17        0.0088881959635313
   18        0.0000000000000000
   19       -0.0000000000000000
   20        0.0021376410959768
   21        0.0000000000000000
   22       -0.0000000000000000
   23       -0.0008598510323220
   24        0.0000000000000000
   25       -0.0000000000000000
   26        0.0001175970478080
   27        0.0015904764050454
   28        0.0000000000000000
   29       -0.0000000000000000
   30       -0.0000000000000000
   31        0.0000000000000000
   32       -0.0007303088842821
   33        0.0000000000000000
   34       -0.0000000000000000
   35        0.0000000000000000
   36        0.0000000000000000
   37        0.0005137691378856
   38        0.0000000000000000
   39       -0.0000000000000000
   40       -0.0000000000000000
   41        0.0000000000000000
   42        0.0000000000000000
   43        0.0000000000000000
   44       -0.0000582827193414
   45       -0.0004568980799964
   46       -0.0010557643212781
   47       -0.0058246911630095
   48        0.0006810028132190
   49        0.0000000000000000
   50       -0.0000000000000000
   51        0.0003449039450953
   52       -0.0000000000000000
   53        0.0000000000000000
   54        0.0020637622359698
   55       -0.0004500995995053
   56       -0.0000000000000000
   57        0.0000000000000000
   58        0.0000000000000000
   59        0.0000000000000000
Sym= A
 Ene=  -0.30616339867379277
Spin= Alpha
Occup=  2.0000
    1        0.0000154229615536
    2        0.0001211856420959
    3        0.0006095581105522
    4        0.0025172841533867
    5        0.0077466211248122
    6        0.0214253660417282
    7        0.0400090969248925
    8        0.0777998061407471
    9        0.0592715326222200
   10       -0.2250977895449429
   11       -0.0910173731942813
   12        0.0000000000000000
   13       -0.0000000000000000
   14       -0.0063975406833439
   15       -0.0000000000000000
   16        0.0000000000000000
   17       -0.0385074322158317
   18       -0.0000000000000000
   19        0.0000000000000000
   20       -0.1008567649944550
   21       -0.0000000000000000
   22        0.0000000000000000
   23       -0.0845710486838219
   24       -0.0000000000000000
   25        0.0000000000000000
   26       -0.0149037614358820
   27       -0.0072944408376959
   28       -0.0000000000000000
   29        0.0000000000000000
   30        0.0000000000000001
   31        0.0000000000000000
   32       -0.0136004913524054
   33       -0.0000000000000000
   34        0.0000000000000000
   35       -0.0000000000000001
   36        0.0000000000000000
   37        0.0011152966128255
   38       -0.0000000000000000
   39        0.0000000000000000
   40        0.0000000000000000
   41        0.0000000000000000
   42        0.0000000000000000
   43        0.0000000000000000
   44       -0.0046912508538228
   45       -0.0347706351523783
   46       -0.1375566123960707
   47       -0.3304150989549500
   48       -0.3077366933717156
   49       -0.0000000000000000
   50        0.0000000000000000
   51        0.0025021726634447
   52        0.0000000000000000
   53       -0.0000000000000000
   54        0.0259277468309703
   55       -0.0029975866928127
   56        0.0000000000000000
   57       -0.0000000000000000
   58       -0.0000000000000000
   59        0.0000000000000000
Sym= A
 Ene=    1.5488412606174413E-003
Spin= Alpha
Occup=  0.0000
    1        0.0000073081697410
    2        0.0000595786347393
    3        0.0002834639790686
    4        0.0012619201102585
    5        0.0034935190306896
    6        0.0110773605490967
    7        0.0168750294859517
    8        0.0415364277162067
    9        0.0204094868660309
   10        0.1101853689512746
   11       -0.9149076623793545
   12        0.0000000000000000
   13       -0.0000000000000000
   14        0.0036844694711231
   15       -0.0000000000000000
   16        0.0000000000000000
   17        0.0158745291257292
   18       -0.0000000000000001
   19        0.0000000000000001
   20        0.1102067580968848
   21       -0.0000000000000002
   22        0.0000000000000003
   23        0.0533845392247586
   24       -0.0000000000000001
   25        0.0000000000000002
   26        0.5170378938630127
   27        0.0391531554165573
   28       -0.0000000000000000
   29        0.0000000000000000
   30        0.0000000000000001
   31        0.0000000000000000
   32       -0.1052538731322743
   33       -0.0000000000000000
   34        0.0000000000000000
   35       -0.0000000000000000
   36        0.0000000000000000
   37        0.0071996349210112
   38       -0.0000000000000000
   39        0.0000000000000000
   40       -0.0000000000000000
   41        0.0000000000000000
   42        0.0000000000000000
   43        0.0000000000000000
   44        0.0008447263723460
   45        0.0044826188265438
   46        0.0311235067843956
   47       -0.0085667772668135
   48        0.2079146064727763
   49       -0.0000000000000000
   50        0.0000000000000000
   51       -0.0022352714630793
   52        0.0000000000000000
   53       -0.0000000000000000
   54        0.0195011139621824
   55       -0.0001626197380799
   56        0.0000000000000000
   57       -0.0000000000000000
   58        0.0000000000000000
   59        0.0000000000000000
Sym= A
 Ene=    3.5414468351205305E-002
Spin= Alpha
Occup=  0.0000
    1       -0.0000000000000000
    2        0.0000000000000000
    3        0.0000000000000000
    4        0.0000000000000000
    5        0.0000000000000000
    6        0.0000000000000000
    7        0.0000000000000000
    8        0.0000000000000000
    9        0.0000000000000000
   10       -0.0000000000000002
   11       -0.0000000000000001
   12        0.0034090010560374
   13        0.0004082459022569
   14       -0.0000000000000000
   15        0.0045629768483938
   16        0.0005465215034753
   17        0.0000000000000000
   18        0.1067096591631424
   19        0.0127794143965403
   20        0.0000000000000000
   21       -0.1573457481185884
   22       -0.0188420250097831
   23        0.0000000000000000
   24        1.0690332665317224
   25        0.1280231139080196
   26        0.0000000000000000
   27        0.0000000000000000
   28        0.0185162479300681
   29        0.0022175308464172
   30        0.0000000000000000
   31        0.0000000000000000
   32        0.0000000000000000
   33       -0.0984969144264606
   34       -0.0117959345812952
   35       -0.0000000000000000
   36        0.0000000000000000
   37        0.0000000000000000
   38        0.0002879094686184
   39        0.0000345708449338
   40       -0.0000000000000000
   41        0.0000000000000000
   42        0.0000000000000000
   43        0.0000000000000000
   44        0.0000000000000000
   45        0.0000000000000000
   46        0.0000000000000000
   47        0.0000000000000001
   48        0.0000000000000000
   49       -0.0000143764874479
   50       -0.0000017368768762
   51       -0.0000000000000000
   52        0.0087642331076897
   53        0.0010496349344678
   54        0.0000000000000000
   55        0.0000000000000000
   56        0.0009527586525160
   57        0.0001140982729840
   58        0.0000000000000000
   59        0.0000000000000000
Sym= A
 Ene=    3.5414468351205534E-002
Spin= Alpha
Occup=  0.0000
    1       -0.0000000000000000
    2       -0.0000000000000000
    3       -0.0000000000000000
    4       -0.0000000000000000
    5       -0.0000000000000000
    6       -0.0000000000000000
    7       -0.0000000000000000
    8       -0.0000000000000000
    9       -0.0000000000000000
   10        0.0000000000000001
   11        0.0000000000000001
   12       -0.0004082458831078
   13        0.0034090010557948
   14        0.0000000000000000
   15       -0.0005465215909328
   16        0.0045629768327229
   17       -0.0000000000000000
   18       -0.0127794143612996
   19        0.1067096591826549
   20       -0.0000000000000001
   21        0.0188420233476665
   22       -0.1573457481987663
   23       -0.0000000000000003
   24       -0.1280231127070081
   25        1.0690332665855999
   26       -0.0000000000000002
   27       -0.0000000000000000
   28       -0.0022175309004305
   29        0.0185162479709751
   30       -0.0000000000000000
   31        0.0000000000000000
   32       -0.0000000000000000
   33        0.0117959347824296
   34       -0.0984969144447857
   35        0.0000000000000000
   36        0.0000000000000000
   37       -0.0000000000000000
   38       -0.0000345708880447
   39        0.0002879094461002
   40        0.0000000000000000
   41        0.0000000000000000
   42        0.0000000000000000
   43        0.0000000000000000
   44        0.0000000000000000
   45        0.0000000000000000
   46        0.0000000000000001
   47        0.0000000000000002
   48        0.0000000000000001
   49        0.0000017367276007
   50       -0.0000143764853364
   51        0.0000000000000000
   52       -0.0010496348050391
   53        0.0087642331057803
   54       -0.0000000000000000
   55       -0.0000000000000000
   56       -0.0001140983174977
   57        0.0009527586532926
   58       -0.0000000000000000
   59        0.0000000000000000
Sym= A
 Ene=    7.3705475485848923E-002
Spin= Alpha
Occup=  0.0000
    1       -0.0000033137943665
    2       -0.0000309263756756
    3       -0.0001188082300224
    4       -0.0006985147014898
    5       -0.0012624823246901
    6       -0.0067996983879438
    7       -0.0035564663126481
    8       -0.0305004897212736
    9        0.0036654197088338
   10       -0.2465513567764241
   11        0.4157729150967401
   12       -0.0000000000000000
   13       -0.0000000000000000
   14       -0.0026558302470338
   15        0.0000000000000000
   16        0.0000000000000000
   17       -0.0334758717484885
   18        0.0000000000000000
   19        0.0000000000000000
   20        0.0176752836065477
   21        0.0000000000000001
   22        0.0000000000000000
   23       -1.1598972905799290
   24        0.0000000000000000
   25        0.0000000000000000
   26        1.3706848389806512
   27        0.0370328009764005
   28        0.0000000000000000
   29        0.0000000000000000
   30       -0.0000000000000002
   31        0.0000000000000000
   32       -0.2534648918425223
   33        0.0000000000000000
   34        0.0000000000000000
   35        0.0000000000000001
   36        0.0000000000000000
   37       -0.0276560922894621
   38        0.0000000000000000
   39        0.0000000000000000
   40       -0.0000000000000000
   41        0.0000000000000000
   42        0.0000000000000000
   43        0.0000000000000000
   44       -0.0012585707486753
   45       -0.0082832267634197
   46       -0.0402383978483042
   47       -0.0697446152515033
   48        0.3076357122430935
   49        0.0000000000000000
   50        0.0000000000000000
   51        0.0002152226029536
   52       -0.0000000000000000
   53       -0.0000000000000000
   54        0.0190590885274468
   55       -0.0030240015844308
   56       -0.0000000000000000
   57       -0.0000000000000000
   58       -0.0000000000000000
   59        0.0000000000000000
Sym= A
 Ene=   0.12784263290376613
Spin= Alpha
Occup=  0.0000
    1        0.0000000000000000
    2        0.0000000000000000
    3        0.0000000000000000
    4        0.0000000000000000
    5        0.0000000000000000
    6        0.0000000000000000
    7        0.0000000000000000
    8        0.0000000000000000
    9        0.0000000000000000
   10       -0.0000000000000000
   11       -0.0000000000000001
   12        0.0001932408672978
   13       -0.0045649849522532
   14       -0.0000000000000000
   15        0.0027886243067682
   16       -0.0658835398140876
   17        0.0000000000000000
   18       -0.0021768814131956
   19        0.0514436006542528
   20        0.0000000000000001
   21        0.0629517923908738
   22       -1.4873044907376554
   23        0.0000000000000002
   24       -0.0456313917408393
   25        1.0781117549353771
   26        0.0000000000000001
   27        0.0000000000000000
   28        0.0002786831737960
   29       -0.0065842634888718
   30        0.0000000000000000
   31        0.0000000000000000
   32        0.0000000000000000
   33       -0.0077289004174855
   34        0.1826180431017404
   35       -0.0000000000000000
   36        0.0000000000000000
   37        0.0000000000000000
   38        0.0003188748979227
   39       -0.0075333909530222
   40       -0.0000000000000000
   41        0.0000000000000000
   42        0.0000000000000000
   43        0.0000000000000000
   44       -0.0000000000000000
   45       -0.0000000000000000
   46       -0.0000000000000000
   47       -0.0000000000000001
   48       -0.0000000000000001
   49        0.0001212816916990
   50       -0.0028651653494627
   51       -0.0000000000000000
   52        0.0002689584932355
   53       -0.0063534173140380
   54        0.0000000000000000
   55        0.0000000000000000
   56       -0.0000631574409172
   57        0.0014920820609752
   58        0.0000000000000000
   59        0.0000000000000000
Sym= A
 Ene=   0.12784263290382156
Spin= Alpha
Occup=  0.0000
    1        0.0000000000000000
    2       -0.0000000000000000
    3       -0.0000000000000000
    4       -0.0000000000000000
    5       -0.0000000000000000
    6       -0.0000000000000000
    7       -0.0000000000000000
    8       -0.0000000000000000
    9       -0.0000000000000000
   10        0.0000000000000001
   11        0.0000000000000001
   12       -0.0045649848573711
   13       -0.0001932424510875
   14        0.0000000000000000
   15       -0.0658835285766905
   16       -0.0027886995699688
   17       -0.0000000000000000
   18        0.0514435968898522
   19        0.0021769441515016
   20       -0.0000000000000000
   21       -1.4873044818498311
   22       -0.0629518108830259
   23       -0.0000000000000000
   24        1.0781117517868557
   25        0.0456313985601052
   26       -0.0000000000000000
   27       -0.0000000000000000
   28       -0.0065842456104660
   29       -0.0002788977755956
   30       -0.0000000000000000
   31        0.0000000000000000
   32       -0.0000000000000000
   33        0.1826180418879521
   34        0.0077290613255295
   35        0.0000000000000000
   36        0.0000000000000000
   37       -0.0000000000000000
   38       -0.0075333730702618
   39       -0.0003187133710683
   40        0.0000000000000000
   41        0.0000000000000000
   42        0.0000000000000000
   43        0.0000000000000000
   44       -0.0000000000000000
   45       -0.0000000000000000
   46       -0.0000000000000000
   47       -0.0000000000000000
   48       -0.0000000000000000
   49       -0.0028652091808248
   50       -0.0001212668618061
   51        0.0000000000000000
   52       -0.0063534343548316
   53       -0.0002690180744809
   54       -0.0000000000000000
   55       -0.0000000000000000
   56        0.0014920669436944
   57        0.0000631638114694
   58       -0.0000000000000000
   59        0.0000000000000000
Sym= A
 Ene=   0.13071666712060989
Spin= Alpha
Occup=  0.0000
    1        0.0000170397385617
    2        0.0001050152999832
    3        0.0007452823749932
    4        0.0018490453689080
    5        0.0109363330701672
    6        0.0105693568714473
    7        0.0747836984736918
    8       -0.0056802295986751
    9        0.2505417631727634
   10       -1.2661448659855490
   11        1.7502899610547205
   12        0.0000000000000000
   13       -0.0000000000000000
   14        0.0029886689538360
   15       -0.0000000000000000
   16        0.0000000000000000
   17        0.0228061063411969
   18       -0.0000000000000000
   19        0.0000000000000001
   20       -0.0215786550161388
   21       -0.0000000000000000
   22        0.0000000000000002
   23        1.2387914940051592
   24       -0.0000000000000000
   25        0.0000000000000001
   26       -0.3452453779395276
   27       -0.1132327536093930
   28       -0.0000000000000000
   29        0.0000000000000000
   30        0.0000000000000002
   31        0.0000000000000000
   32        0.1296071986739142
   33       -0.0000000000000000
   34        0.0000000000000000
   35       -0.0000000000000002
   36        0.0000000000000000
   37       -0.0277221919166290
   38       -0.0000000000000000
   39        0.0000000000000000
   40       -0.0000000000000000
   41        0.0000000000000000
   42        0.0000000000000000
   43        0.0000000000000000
   44       -0.0011029741739482
   45        0.0016689431809786
   46       -0.0646738016739093
   47        0.2612335139755588
   48       -1.0883504048523467
   49       -0.0000000000000000
   50        0.0000000000000000
   51        0.0041545596572129
   52        0.0000000000000000
   53       -0.0000000000000000
   54       -0.0413901317683476
   55       -0.0003610103722578
   56        0.0000000000000000
   57       -0.0000000000000000
   58        0.0000000000000000
   59        0.0000000000000000
Sym= A
 Ene=   0.20025470035874787
Spin= Alpha
Occup=  0.0000
    1        0.0000098050628944
    2        0.0000724508565835
    3        0.0003990312593851
    4        0.0014529430451048
    5        0.0053147798299449
    6        0.0115734506507898
    7        0.0309615951051626
    8        0.0315294181472678
    9        0.1268566696573800
   10       -1.1149673382485217
   11        0.5747660257583316
   12        0.0000000000000000
   13        0.0000000000000000
   14        0.0018868077337434
   15       -0.0000000000000000
   16       -0.0000000000000000
   17       -0.0110430521694082
   18       -0.0000000000000000
   19       -0.0000000000000000
   20       -0.0633821805794703
   21       -0.0000000000000000
   22       -0.0000000000000000
   23       -0.6132179212842682
   24       -0.0000000000000000
   25       -0.0000000000000000
   26        0.3712833841120433
   27       -0.3398302393009435
   28       -0.0000000000000000
   29       -0.0000000000000000
   30        0.0000000000000002
   31        0.0000000000000000
   32        0.9677366442416090
   33       -0.0000000000000000
   34       -0.0000000000000000
   35       -0.0000000000000002
   36        0.0000000000000000
   37       -0.1093898282247062
   38       -0.0000000000000000
   39       -0.0000000000000000
   40        0.0000000000000000
   41        0.0000000000000000
   42        0.0000000000000000
   43        0.0000000000000000
   44        0.0009152901358131
   45        0.0105570714000804
   46        0.0116591484923517
   47        0.3342045311942329
   48        0.1446759708290477
   49       -0.0000000000000000
   50       -0.0000000000000000
   51        0.0166740375427274
   52        0.0000000000000000
   53        0.0000000000000000
   54       -0.1413094208791605
   55        0.0058570598258168
   56        0.0000000000000000
   57        0.0000000000000000
   58        0.0000000000000000
   59        0.0000000000000000
Sym= A
 Ene=   0.22995518401091472
Spin= Alpha
Occup=  0.0000
    1        0.0000000000000000
    2        0.0000000000000000
    3        0.0000000000000000
    4        0.0000000000000000
    5        0.0000000000000000
    6        0.0000000000000000
    7        0.0000000000000000
    8        0.0000000000000000
    9       -0.0000000000000000
   10       -0.0000000000000001
   11        0.0000000000000002
   12       -0.0000000000000000
   13        0.0000000000000000
   14        0.0000000000000000
   15        0.0000000000000000
   16       -0.0000000000000000
   17       -0.0000000000000000
   18        0.0000000000000000
   19       -0.0000000000000000
   20        0.0000000000000000
   21        0.0000000000000000
   22        0.0000000000000000
   23        0.0000000000000001
   24       -0.0000000000000000
   25       -0.0000000000000000
   26       -0.0000000000000000
   27        0.0000000000000001
   28       -0.0000000000000000
   29       -0.0000000000000000
   30       -0.2401302853959370
   31        0.0000000000000000
   32        0.0000000000000000
   33        0.0000000000000000
   34       -0.0000000000000000
   35        1.1621645096116950
   36        0.0000000000000000
   37        0.0000000000000000
   38       -0.0000000000000000
   39        0.0000000000000000
   40       -0.0469241147296227
   41        0.0000000000000000
   42        0.0000000000000000
   43        0.0000000000000000
   44        0.0000000000000000
   45        0.0000000000000000
   46        0.0000000000000000
   47       -0.0000000000000000
   48       -0.0000000000000001
   49       -0.0000000000000000
   50        0.0000000000000000
   51        0.0000000000000000
   52        0.0000000000000000
   53       -0.0000000000000000
   54        0.0000000000000000
   55       -0.0000000000000000
   56       -0.0000000000000000
   57       -0.0000000000000000
   58        0.0016677298343992
   59        0.0000000000000000
Sym= A
 Ene=   0.22995518401091494
Spin= Alpha
Occup=  0.0000
    1        0.0000000000000000
    2        0.0000000000000000
    3        0.0000000000000000
    4        0.0000000000000000
    5        0.0000000000000000
    6        0.0000000000000000
    7        0.0000000000000000
    8        0.0000000000000000
    9        0.0000000000000000
   10        0.0000000000000000
   11        0.0000000000000000
   12        0.0000000000000000
   13        0.0000000000000000
   14        0.0000000000000000
   15        0.0000000000000000
   16        0.0000000000000000
   17        0.0000000000000000
   18        0.0000000000000000
   19        0.0000000000000000
   20        0.0000000000000000
   21        0.0000000000000000
   22        0.0000000000000000
   23        0.0000000000000000
   24        0.0000000000000000
   25        0.0000000000000000
   26        0.0000000000000000
   27        0.0000000000000000
   28        0.0000000000000000
   29        0.0000000000000000
   30        0.0000000000000000
   31       -0.2401302853959371
   32        0.0000000000000000
   33        0.0000000000000000
   34        0.0000000000000000
   35        0.0000000000000000
   36        1.1621645096116950
   37        0.0000000000000000
   38        0.0000000000000000
   39        0.0000000000000000
   40        0.0000000000000000
   41       -0.0469241147296227
   42        0.0000000000000000
   43        0.0000000000000000
   44        0.0000000000000000
   45        0.0000000000000000
   46        0.0000000000000000
   47        0.0000000000000000
   48        0.0000000000000000
   49        0.0000000000000000
   50        0.0000000000000000
   51        0.0000000000000000
   52        0.0000000000000000
   53        0.0000000000000000
   54        0.0000000000000000
   55        0.0000000000000000
   56        0.0000000000000000
   57        0.0000000000000000
   58        0.0000000000000000