[Molden Format]
[GTO]
    1 0
 s   1 1.00
       6.1638450    1.0000000000
 p   1 1.00
       0.2459160    1.0000000000
 d   1 1.00
       0.0623710    1.0000000000

    2 0
 s   2 1.00
       1.3097564    1.0000000000
       0.2331360    0.0000000000
 s   2 1.00
       1.3097564    0.0000000000
       0.2331360    1.0000000000

[SCFCONV]
scf-first  1  THROUGH  10
       -3.2685530615
       -3.4976950632
       -3.6684660383
       -3.7442980953
       -3.7533676540
       -3.7552702120
       -3.7552830351
       -3.7552842649
       -3.7552843229
       -3.7552843236
[TITLE]
*** Dalton interface to Molden, wave function type : HF            30Nov22   14:
[Atoms] AU
Li         1     3         0.0000000000         0.0000000000        -0.545857052
H          2     1         0.0000000000         0.0000000000         2.309057052
[5D7F]
[9G]
[MO]
Sym= A
 Ene=  -0.48297037942753696
Spin= Alpha
Occup=  2.0000
           1 -0.64452948216490502
           2   2.1479595850292036E-016
           3  -3.7218086364436749E-016
           4  0.29380883547230413
           5  0.23573215293660615
           6  -1.8753184415303181E-033
           7   6.0423210282001192E-033
           8   0.0000000000000000
           9   0.0000000000000000
          10   4.4680584054962846E-003
          11 -0.91553661221103810
Sym= A
 Ene=  -0.20688349020194488
Spin= Alpha
Occup=  2.0000
           1 -0.46132469765446094
           2   6.4832522680234275E-016
           3  -1.1254461294336620E-015
           4  0.67441332971699919
           5  0.24034348157025284
           6  -2.3615332115382337E-033
           7   1.9185702088346483E-032
           8   0.0000000000000000
           9   0.0000000000000000
          10  0.20350136713114372
          11  0.11670264329259032
Sym= A
 Ene=   0.18711941636487645
Spin= Alpha
Occup=  0.0000
           1   0.0000000000000000
           2   0.0000000000000000
           3   0.0000000000000000
           4   0.0000000000000000
           5   0.0000000000000000
           6   0.0000000000000000
           7   0.0000000000000000
           8   1.0000000000000002
           9   0.0000000000000000
          10   0.0000000000000000
          11   0.0000000000000000
Sym= A
 Ene=   0.18711941636487672
Spin= Alpha
Occup=  0.0000
           1   0.0000000000000000
           2   0.0000000000000000
           3   0.0000000000000000
           4   0.0000000000000000
           5   0.0000000000000000
           6   0.0000000000000000
           7   0.0000000000000000
           8   0.0000000000000000
           9   1.0000000000000000
          10   0.0000000000000000
          11   0.0000000000000000
Sym= A
 Ene=   0.18859688691572821
Spin= Alpha
Occup=  0.0000
           1   8.3988320396527066E-002
           2   4.7205195755201434E-017
           3  -7.5958365386693124E-017
           4 -0.22580664660986999
           5  0.99801135493788740
           6   9.8879606089592269E-033
           7  -4.1434548354172851E-033
           8   0.0000000000000000
           9   0.0000000000000000
          10   2.8977353856024506E-002
          11 -0.17485804543993094
Sym= A
 Ene=   0.19881481114479352
Spin= Alpha
Occup=  0.0000
           1   1.1998408803141614E-017
           2  -6.0378965251856896E-002
           3  -2.8297070038887817E-007
           4   8.4373626006448407E-017
           5   3.5810226859119304E-017
           6  0.99817552577719526
           7   1.7159691083671080E-005
           8   0.0000000000000000
           9   0.0000000000000000
          10   4.0504049082077059E-017
          11  -8.1587220980779441E-017
Sym= A
 Ene=   0.19881481114479363
Spin= Alpha
Occup=  0.0000
           1  -2.0864241684778551E-017
           2   2.8297070038931307E-007
           3  -6.0378965251857042E-002
           4  -1.4668340798857541E-016
           5  -6.1836071249028582E-017
           6  -1.7159691083671049E-005
           7  0.99817552577719526
           8   0.0000000000000000
           9   0.0000000000000000
          10  -6.9717415128558269E-017
          11   1.4125281421841100E-016
Sym= A
 Ene=   0.28969140857143588
Spin= Alpha
Occup=  0.0000
           1   1.9675302302424764E-016
           2 -0.99816475639268576
           3  -4.6367715670773196E-003
           4   1.3835833399577850E-015
           5   5.8725876684692387E-016
           6  -6.0378310298866325E-002
           7  -2.8123018833130746E-004
           8   0.0000000000000000
           9   0.0000000000000000
          10   6.6425082651151207E-016
          11  -1.3379360466652374E-015
Sym= A
 Ene=   0.28969140857143594
Spin= Alpha
Occup=  0.0000
           1  -3.4584111928633372E-016
           2   4.6367715670773196E-003
           3 -0.99816475639268587
           4  -2.4313937363108624E-015
           5  -1.0250004186242706E-015
           6   2.8123018833130724E-004
           7  -6.0378310298866471E-002
           8   0.0000000000000000
           9   0.0000000000000000
          10  -1.1556522450605036E-015
          11   2.3414032190545644E-015
Sym= A
 Ene=   0.56085638801383486
Spin= Alpha
Occup=  0.0000
           1  0.58432441781157418
           2   9.3697544730989845E-016
           3  -1.6297214142527763E-015
           4  0.92782625289174592
           5  0.33455054087869618
           6   3.7185702791594836E-033
           7   8.8064387974636367E-032
           8   0.0000000000000000
           9   0.0000000000000000
          10 -0.11745407467944727
          11 -0.77935799389045424
Sym= A
 Ene=    1.7802274402894975
Spin= Alpha
Occup=  0.0000
           1 -0.16273769791887890
           2  -5.2101281598797230E-016
           3   8.9693955458268767E-016
           4  -7.3650936470213466E-002
           5  -5.0025407984048732E-002
           6   3.3507246476768712E-033
           7  -4.1967022050328280E-032
           8   0.0000000000000000
           9   0.0000000000000000
          10  -1.2410918963402073
          11  0.94388761108023744
[End of Molden output from Dalton]
