[Molden Format]
[GTO]
    1 0
 s  12 1.00
     900.4600000    1.0000000000
     134.4330000    0.0000000000
      30.4365000    0.0000000000
       8.6263900    0.0000000000
       4.8689000    0.0000000000
       2.4833200    0.0000000000
       0.8569240    0.0000000000
       0.3031790    0.0000000000
       0.2432270    0.0000000000
       0.0635070    0.0000000000
       0.0243683    0.0000000000
       0.0074000    0.0000000000
 s  12 1.00
     900.4600000    0.0000000000
     134.4330000    1.0000000000
      30.4365000    0.0000000000
       8.6263900    0.0000000000
       4.8689000    0.0000000000
       2.4833200    0.0000000000
       0.8569240    0.0000000000
       0.3031790    0.0000000000
       0.2432270    0.0000000000
       0.0635070    0.0000000000
       0.0243683    0.0000000000
       0.0074000    0.0000000000
 s  12 1.00
     900.4600000    0.0000000000
     134.4330000    0.0000000000
      30.4365000    1.0000000000
       8.6263900    0.0000000000
       4.8689000    0.0000000000
       2.4833200    0.0000000000
       0.8569240    0.0000000000
       0.3031790    0.0000000000
       0.2432270    0.0000000000
       0.0635070    0.0000000000
       0.0243683    0.0000000000
       0.0074000    0.0000000000
 s  12 1.00
     900.4600000    0.0000000000
     134.4330000    0.0000000000
      30.4365000    0.0000000000
       8.6263900    1.0000000000
       4.8689000    0.0000000000
       2.4833200    0.0000000000
       0.8569240    0.0000000000
       0.3031790    0.0000000000
       0.2432270    0.0000000000
       0.0635070    0.0000000000
       0.0243683    0.0000000000
       0.0074000    0.0000000000
 s  12 1.00
     900.4600000    0.0000000000
     134.4330000    0.0000000000
      30.4365000    0.0000000000
       8.6263900    0.0000000000
       4.8689000    1.0000000000
       2.4833200    0.0000000000
       0.8569240    0.0000000000
       0.3031790    0.0000000000
       0.2432270    0.0000000000
       0.0635070    0.0000000000
       0.0243683    0.0000000000
       0.0074000    0.0000000000
 s  12 1.00
     900.4600000    0.0000000000
     134.4330000    0.0000000000
      30.4365000    0.0000000000
       8.6263900    0.0000000000
       4.8689000    0.0000000000
       2.4833200    1.0000000000
       0.8569240    0.0000000000
       0.3031790    0.0000000000
       0.2432270    0.0000000000
       0.0635070    0.0000000000
       0.0243683    0.0000000000
       0.0074000    0.0000000000
 s  12 1.00
     900.4600000    0.0000000000
     134.4330000    0.0000000000
      30.4365000    0.0000000000
       8.6263900    0.0000000000
       4.8689000    0.0000000000
       2.4833200    0.0000000000
       0.8569240    1.0000000000
       0.3031790    0.0000000000
       0.2432270    0.0000000000
       0.0635070    0.0000000000
       0.0243683    0.0000000000
       0.0074000    0.0000000000
 s  12 1.00
     900.4600000    0.0000000000
     134.4330000    0.0000000000
      30.4365000    0.0000000000
       8.6263900    0.0000000000
       4.8689000    0.0000000000
       2.4833200    0.0000000000
       0.8569240    0.0000000000
       0.3031790    1.0000000000
       0.2432270    0.0000000000
       0.0635070    0.0000000000
       0.0243683    0.0000000000
       0.0074000    0.0000000000
 s  12 1.00
     900.4600000    0.0000000000
     134.4330000    0.0000000000
      30.4365000    0.0000000000
       8.6263900    0.0000000000
       4.8689000    0.0000000000
       2.4833200    0.0000000000
       0.8569240    0.0000000000
       0.3031790    0.0000000000
       0.2432270    1.0000000000
       0.0635070    0.0000000000
       0.0243683    0.0000000000
       0.0074000    0.0000000000
 s  12 1.00
     900.4600000    0.0000000000
     134.4330000    0.0000000000
      30.4365000    0.0000000000
       8.6263900    0.0000000000
       4.8689000    0.0000000000
       2.4833200    0.0000000000
       0.8569240    0.0000000000
       0.3031790    0.0000000000
       0.2432270    0.0000000000
       0.0635070    1.0000000000
       0.0243683    0.0000000000
       0.0074000    0.0000000000
 s  12 1.00
     900.4600000    0.0000000000
     134.4330000    0.0000000000
      30.4365000    0.0000000000
       8.6263900    0.0000000000
       4.8689000    0.0000000000
       2.4833200    0.0000000000
       0.8569240    0.0000000000
       0.3031790    0.0000000000
       0.2432270    0.0000000000
       0.0635070    0.0000000000
       0.0243683    1.0000000000
       0.0074000    0.0000000000
 s  12 1.00
     900.4600000    0.0000000000
     134.4330000    0.0000000000
      30.4365000    0.0000000000
       8.6263900    0.0000000000
       4.8689000    0.0000000000
       2.4833200    0.0000000000
       0.8569240    0.0000000000
       0.3031790    0.0000000000
       0.2432270    0.0000000000
       0.0635070    0.0000000000
       0.0243683    0.0000000000
       0.0074000    1.0000000000
 p   6 1.00
       4.8689000    1.0000000000
       0.8569240    0.0000000000
       0.2432270    0.0000000000
       0.0635070    0.0000000000
       0.0243683    0.0000000000
       0.0074000    0.0000000000
 p   6 1.00
       4.8689000    0.0000000000
       0.8569240    1.0000000000
       0.2432270    0.0000000000
       0.0635070    0.0000000000
       0.0243683    0.0000000000
       0.0074000    0.0000000000
 p   6 1.00
       4.8689000    0.0000000000
       0.8569240    0.0000000000
       0.2432270    1.0000000000
       0.0635070    0.0000000000
       0.0243683    0.0000000000
       0.0074000    0.0000000000
 p   6 1.00
       4.8689000    0.0000000000
       0.8569240    0.0000000000
       0.2432270    0.0000000000
       0.0635070    1.0000000000
       0.0243683    0.0000000000
       0.0074000    0.0000000000
 p   6 1.00
       4.8689000    0.0000000000
       0.8569240    0.0000000000
       0.2432270    0.0000000000
       0.0635070    0.0000000000
       0.0243683    1.0000000000
       0.0074000    0.0000000000
 p   6 1.00
       4.8689000    0.0000000000
       0.8569240    0.0000000000
       0.2432270    0.0000000000
       0.0635070    0.0000000000
       0.0243683    0.0000000000
       0.0074000    1.0000000000
 d   1 1.00
       0.2000000    1.0000000000

    2 0
 s   2 1.00
       1.3097564    1.0000000000
       0.2331360    0.0000000000
 s   2 1.00
       1.3097564    0.0000000000
       0.2331360    1.0000000000

*** Dalton interface to Molden, wave function type :
HF          14Jun22   00:41:51
[Atoms] AU
Li         1     3         0.0000000000         0.0000000000        -0.545857052
H          2     1         0.0000000000         0.0000000000         2.309057052
[5D7F]
[9G]
[MO]
Sym= A
 Ene=   -2.4370079473968116
Spin= Alpha
Occup=  2.0000
    1       -0.0014121995913788
    2       -0.0108468065704456
    3       -0.0540220399499688
    4       -0.1716040750252905
    5       -0.0437899192605181
    6       -0.4025180904299723
    7       -0.4074177009276714
    8       -0.0636248050526028
    9       -0.0100319872238004
   10        0.0033207525760415
   11       -0.0018771273263137
   12        0.0004837255409029
   13        0.0000000000000000
   14        0.0000000000000000
   15        0.0010242134929617
   16        0.0000000000000000
   17        0.0000000000000000
   18        0.0084512667308924
   19        0.0000000000000000
   20        0.0000000000000000
   21        0.0005439735225705
   22        0.0000000000000000
   23        0.0000000000000001
   24       -0.0004262241823019
   25        0.0000000000000000
   26        0.0000000000000001
   27        0.0001131442484665
   28        0.0000000000000000
   29        0.0000000000000000
   30       -0.0000301524997558
   31       -0.0009485184681732
   32        0.0000000000000000
   33        0.0000000000000000
   34        0.0000000000000000
   35        0.0000000000000000
   36       -0.0022700725148496
   37       -0.0012458978394613
Sym= A
 Ene=  -0.30317277933570552
Spin= Alpha
Occup=  2.0000
    1        0.0001681409830744
    2        0.0012884209221511
    3        0.0065628473163489
    4        0.0210180994752139
    5        0.0072044036530571
    6        0.0541755486721656
    7        0.0977255076689411
    8        0.1389968743855614
    9       -0.1483500582951423
   10       -0.3276236467216493
   11       -0.1026536975048831
   12        0.0110193244895675
   13        0.0000000000000000
   14       -0.0000000000000000
   15       -0.0043541767654944
   16        0.0000000000000000
   17       -0.0000000000000000
   18       -0.0231709760079643
   19        0.0000000000000000
   20       -0.0000000000000000
   21       -0.1031580092656392
   22        0.0000000000000000
   23       -0.0000000000000000
   24       -0.1901171752662456
   25        0.0000000000000000
   26       -0.0000000000000000
   27       -0.0312726903926636
   28        0.0000000000000000
   29       -0.0000000000000000
   30        0.0039193438428057
   31       -0.0312378520106594
   32        0.0000000000000000
   33       -0.0000000000000000
   34       -0.0000000000000000
   35        0.0000000000000000
   36       -0.1805879980177421
   37       -0.4546492678809476
Sym= A
 Ene=   -5.0988171089209992E-003
Spin= Alpha
Occup=  0.0000
    1        0.0000548355705116
    2        0.0004163268063759
    3        0.0021512132567635
    4        0.0066020678907932
    5        0.0028561987053932
    6        0.0168842803812253
    7        0.0316911443487712
    8        0.0002055496228865
    9        0.0242712298700716
   10       -0.0829931499954115
   11       -0.0566351091177162
   12       -0.7000667712942665
   13        0.0000000000000000
   14       -0.0000000000000000
   15        0.0018606516454053
   16        0.0000000000000000
   17       -0.0000000000000000
   18        0.0085359822193115
   19        0.0000000000000001
   20       -0.0000000000000000
   21        0.0419358713526077
   22        0.0000000000000001
   23       -0.0000000000000000
   24        0.1571032416308475
   25        0.0000000000000001
   26       -0.0000000000000000
   27        0.1982535118482808
   28        0.0000000000000000
   29       -0.0000000000000000
   30        0.3547701535164577
   31       -0.0052904726834615
   32        0.0000000000000000
   33        0.0000000000000000
   34        0.0000000000000000
   35        0.0000000000000000
   36        0.0259544278239075
   37        0.0572467465219299
Sym= A
 Ene=    1.5405443585065784E-002
Spin= Alpha
Occup=  0.0000
    1       -0.0000000000000000
    2       -0.0000000000000000
    3       -0.0000000000000000
    4       -0.0000000000000000
    5       -0.0000000000000000
    6       -0.0000000000000000
    7       -0.0000000000000000
    8        0.0000000000000000
    9       -0.0000000000000000
   10       -0.0000000000000000
   11       -0.0000000000000000
   12       -0.0000000000000000
   13       -0.0000002021019300
   14       -0.0004575974589869
   15       -0.0000000000000000
   16       -0.0000021911182560
   17       -0.0049973055790504
   18       -0.0000000000000000
   19       -0.0000008046731366
   20       -0.0020284801083648
   21       -0.0000000000000000
   22       -0.0000532929934012
   23       -0.1173332099709519
   24       -0.0000000000000000
   25        0.0001049591238218
   26        0.2226404069239254
   27       -0.0000000000000000
   28       -0.0005166720688284
   29       -1.1060725215279694
   30       -0.0000000000000000
   31        0.0000000000000000
   32        0.0000022728754707
   33        0.0050697017029418
   34       -0.0000000000000000
   35        0.0000000000000000
   36        0.0000000000000000
   37        0.0000000000000001
Sym= A
 Ene=    1.5405443585165959E-002
Spin= Alpha
Occup=  0.0000
    1        0.0000000000000000
    2        0.0000000000000000
    3        0.0000000000000000
    4        0.0000000000000000
    5       -0.0000000000000000
    6        0.0000000000000000
    7        0.0000000000000000
    8        0.0000000000000001
    9       -0.0000000000000001
   10       -0.0000000000000001
   11       -0.0000000000000001
   12       -0.0000000000000000
   13       -0.0004575974621153
   14        0.0000002012399261
   15       -0.0000000000000000
   16       -0.0049973055606628
   17        0.0000023246130861
   18        0.0000000000000000
   19       -0.0020284802735801
   20        0.0000004908646350
   21        0.0000000000000000
   22       -0.1173332090697972
   23        0.0000552292683205
   24        0.0000000000000000
   25        0.2226404038578171
   26       -0.0001082291528257
   27        0.0000000000000000
   28       -1.1060725199271593
   29        0.0005181175424392
   30        0.0000000000000000
   31        0.0000000000000000
   32        0.0050697017149427
   33       -0.0000022343486825
   34        0.0000000000000000
   35        0.0000000000000000
   36        0.0000000000000000
   37        0.0000000000000001
Sym= A
 Ene=    2.4084428623302165E-002
Spin= Alpha
Occup=  0.0000
    1        0.0000380066813390
    2        0.0003124327786851
    3        0.0014093081722212
    4        0.0062222314587483
    5       -0.0022340959236489
    6        0.0186201163676310
    7        0.0070685204298929
    8        0.1572793971007553
    9       -0.1642418229424635
   10        0.1002674600661929
   11       -0.5227445326541825
   12        0.0954785240817136
   13        0.0000000000000000
   14        0.0000000000000000
   15        0.0018426030687810
   16        0.0000000000000000
   17        0.0000000000000000
   18        0.0043209881396912
   19        0.0000000000000000
   20        0.0000000000000000
   21        0.0545456103019196
   22        0.0000000000000001
   23        0.0000000000000000
   24       -0.0105562091855194
   25        0.0000000000000001
   26        0.0000000000000000
   27        0.7124522083760367
   28        0.0000000000000000
   29        0.0000000000000000
   30       -1.2107573771530333
   31       -0.0083637441194776
   32        0.0000000000000000
   33       -0.0000000000000000
   34       -0.0000000000000000
   35        0.0000000000000000
   36        0.0228555267280837
   37        0.0762061147709720
Sym= A
 Ene=    2.7649304719315308E-002
Spin= Alpha
Occup=  0.0000
    1       -0.0000627533360068
    2       -0.0005574516488107
    3       -0.0021861878155525
    4       -0.0131469357954847
    5        0.0109845540125905
    6       -0.0428235345377698
    7        0.0132761754922068
    8       -0.5427398494443980
    9        0.6145743648649176
   10       -0.4666438935599099
   11        1.6833100770319531
   12       -1.5465621854314673
   13       -0.0000000000000000
   14        0.0000000000000000
   15       -0.0014201662311227
   16       -0.0000000000000000
   17        0.0000000000000000
   18       -0.0062929998824203
   19       -0.0000000000000000
   20        0.0000000000000000
   21       -0.0318853039107138
   22       -0.0000000000000001
   23        0.0000000000000000
   24       -0.1682254709291255
   25       -0.0000000000000001
   26        0.0000000000000000
   27       -0.1775786096158611
   28       -0.0000000000000000
   29        0.0000000000000000
   30       -0.1660095435727831
   31        0.0048226975578939
   32       -0.0000000000000000
   33       -0.0000000000000000
   34       -0.0000000000000000
   35        0.0000000000000000
   36       -0.0118060076202539
   37       -0.0007486799346948
Sym= A
 Ene=    5.8116634404450689E-002
Spin= Alpha
Occup=  0.0000
    1        0.0000000000000000
    2        0.0000000000000000
    3        0.0000000000000000
    4        0.0000000000000000
    5       -0.0000000000000000
    6        0.0000000000000000
    7        0.0000000000000000
    8        0.0000000000000001
    9       -0.0000000000000001
   10       -0.0000000000000002
   11       -0.0000000000000001
   12       -0.0000000000000000
   13       -0.0030319885193986
   14        0.0000046691213893
   15       -0.0000000000000000
   16       -0.0039520672039211
   17        0.0000060778043140
   18        0.0000000000000000
   19       -0.0976447735359970
   20        0.0001503900994304
   21        0.0000000000000000
   22        0.1202422409191228
   23       -0.0001854334858366
   24        0.0000000000000000
   25       -1.4023221685871525
   26        0.0021604024486149
   27        0.0000000000000000
   28        0.8140006337623269
   29       -0.0012559877061703
   30        0.0000000000000000
   31        0.0000000000000000
   32        0.0195866731477917
   33       -0.0000301545449645
   34        0.0000000000000000
   35        0.0000000000000000
   36        0.0000000000000000
   37        0.0000000000000001
Sym= A
 Ene=    5.8116634404553676E-002
Spin= Alpha
Occup=  0.0000
    1       -0.0000000000000000
    2       -0.0000000000000000
    3       -0.0000000000000000
    4       -0.0000000000000000
    5       -0.0000000000000000
    6       -0.0000000000000000
    7       -0.0000000000000000
    8        0.0000000000000000
    9       -0.0000000000000000
   10       -0.0000000000000001
   11       -0.0000000000000000
   12       -0.0000000000000000
   13       -0.0000046794847531
   14       -0.0030319823676427
   15       -0.0000000000000000
   16       -0.0000062051735426
   17       -0.0039521598048915
   18       -0.0000000000000000
   19       -0.0001505486474530
   20       -0.0976446924790930
   21       -0.0000000000000000
   22        0.0001830853735235
   23        0.1202421944439112
   24       -0.0000000000000001
   25       -0.0021581118039285
   26       -1.4023221430170745
   27       -0.0000000000000000
   28        0.0012564064065468
   29        0.8140006260448613
   30       -0.0000000000000000
   31        0.0000000000000000
   32        0.0000304929070523
   33        0.0195866734937864
   34       -0.0000000000000000
   35        0.0000000000000000
   36        0.0000000000000001
   37        0.0000000000000001
Sym= A
 Ene=   0.11538546487130021
Spin= Alpha
Occup=  0.0000
    1       -0.0000169598316766
    2       -0.0001702245828438
    3       -0.0005213033894033
    4       -0.0049020488076456
    5        0.0065343301523190
    6       -0.0173156524797476
    7        0.0169286742897497
    8       -0.2211599197535682
    9        0.2355431868831468
   10       -0.2894424727958020
   11        0.7824044681151479
   12       -0.2670008387568545
   13       -0.0000000000000000
   14       -0.0000000000000000
   15       -0.0019962139004697
   16       -0.0000000000000000
   17       -0.0000000000000000
   18       -0.0307712514960214
   19       -0.0000000000000000
   20       -0.0000000000000000
   21        0.0063386903649958
   22       -0.0000000000000001
   23       -0.0000000000000000
   24       -1.0837736685689507
   25       -0.0000000000000000
   26       -0.0000000000000000
   27        1.8836508051285172
   28       -0.0000000000000000
   29       -0.0000000000000000
   30       -0.7084574996821397
   31       -0.0390303202012906
   32       -0.0000000000000000
   33        0.0000000000000000
   34        0.0000000000000000
   35        0.0000000000000000
   36       -0.0584206561127792
   37       -0.0978420619047531
Sym= A
 Ene=   0.13540057944409947
Spin= Alpha
Occup=  0.0000
    1        0.0001770150967769
    2        0.0010630670124829
    3        0.0079206790807790
    4        0.0019597451858463
    5        0.0593578772598646
    6       -0.0271276210515020
    7        0.2918620422732620
    8       -1.9390870051784255
    9        2.3931193676657951
   10       -2.9665594801216302
   11        3.0574492616687734
   12       -0.9806328888980990
   13        0.0000000000000000
   14       -0.0000000000000000
   15        0.0021949921048703
   16        0.0000000000000000
   17       -0.0000000000000000
   18        0.0141336175742284
   19        0.0000000000000000
   20       -0.0000000000000000
   21        0.0356008068838631
   22        0.0000000000000000
   23       -0.0000000000000000
   24        0.5682398425922772
   25        0.0000000000000000
   26       -0.0000000000000000
   27       -0.3831680920644928
   28        0.0000000000000000
   29       -0.0000000000000000
   30        0.1024450739905356
   31       -0.0375842982038199
   32        0.0000000000000000
   33        0.0000000000000000
   34        0.0000000000000000
   35        0.0000000000000000
   36       -0.0078644226852556
   37       -0.0115151964069307
Sym= A
 Ene=   0.16816081595009502
Spin= Alpha
Occup=  0.0000
    1        0.0000000000000000
    2        0.0000000000000000
    3        0.0000000000000000
    4        0.0000000000000000
    5       -0.0000000000000000
    6        0.0000000000000000
    7        0.0000000000000000
    8        0.0000000000000001
    9       -0.0000000000000001
   10       -0.0000000000000001
   11       -0.0000000000000001
   12       -0.0000000000000000
   13       -0.0043988457105268
   14        0.0000019188701034
   15       -0.0000000000000000
   16       -0.0531091691735065
   17        0.0000231111601775
   18        0.0000000000000000
   19       -0.0137829021523755
   20        0.0000061724650753
   21        0.0000000000000000
   22       -1.6469920536603220
   23        0.0007163087933521
   24        0.0000000000000000
   25        1.6371524677511426
   26       -0.0007098504115041
   27        0.0000000000000000
   28       -0.5211341304963121
   29        0.0002243548558372
   30        0.0000000000000000
   31        0.0000000000000000
   32        0.0504871089839437
   33       -0.0000219791179877
   34        0.0000000000000000
   35        0.0000000000000000
   36        0.0000000000000000
   37        0.0000000000000000
Sym= A
 Ene=   0.16816081595053031
Spin= Alpha
Occup=  0.0000
    1       -0.0000000000000000
    2       -0.0000000000000000
    3       -0.0000000000000000
    4       -0.0000000000000000
    5       -0.0000000000000000
    6       -0.0000000000000000
    7       -0.0000000000000000
    8        0.0000000000000000
    9       -0.0000000000000000
   10       -0.0000000000000000
   11       -0.0000000000000000
   12       -0.0000000000000000
   13       -0.0000019153422557
   14       -0.0043988457165150
   15       -0.0000000000000000
   16       -0.0000231079118398
   17       -0.0531091691779880
   18       -0.0000000000000000
   19       -0.0000060390477445
   20       -0.0137829023534885
   21       -0.0000000000000000
   22       -0.0007165921534798
   23       -1.6469920533618767
   24       -0.0000000000000000
   25        0.0007123286826830
   26        1.6371524647648525
   27       -0.0000000000000000
   28       -0.0002267449126623
   29       -0.5211341283172596
   30       -0.0000000000000000
   31        0.0000000000000000
   32        0.0000219620001348
   33        0.0504871090221329
   34       -0.0000000000000000
   35        0.0000000000000000
   36        0.0000000000000000
   37        0.0000000000000001
Sym= A
 Ene=   0.33704147395557255
Spin= Alpha
Occup=  0.0000
    1       -0.0000580648939431
    2       -0.0003377433492640
    3       -0.0026393190712466
    4        0.0001342862270464
    5       -0.0216266728953213
    6        0.0123873838815023
    7       -0.1065267026481058
    8        0.7533424360845232
    9       -1.0317651398153904
   10        1.7243172564694407
   11       -0.8115181780198836
   12        0.1835546573635208
   13       -0.0000000000000000
   14       -0.0000000000000000
   15       -0.0011553039306377
   16       -0.0000000000000000
   17       -0.0000000000000000
   18        0.0095452966245975
   19       -0.0000000000000000
   20       -0.0000000000000000
   21       -0.0867221865861531
   22       -0.0000000000000001
   23       -0.0000000000000001
   24        1.6711214641480854
   25       -0.0000000000000000
   26       -0.0000000000000000
   27       -0.9049224264788556
   28       -0.0000000000000000
   29       -0.0000000000000000
   30        0.2372347653489543
   31       -0.1153914860076289
   32       -0.0000000000000000
   33        0.0000000000000000
   34        0.0000000000000000
   35        0.0000000000000000
   36       -0.0676334319428963
   37       -1.1621416023704105
Sym= A
 Ene=   0.51692643303201635
Spin= Alpha
Occup=  0.0000
    1       -0.0002151383002326
    2       -0.0025291460705705
    3       -0.0054067570320839
    4       -0.0886150211116698
    5        0.1493018602395279
    6       -0.3378524556401641
    7        0.4603944139454282
    8       -7.5687295636924548
    9        9.0379632828638581
   10       -2.6838035112736893
   11        1.4562417133825156
   12       -0.3599166933864086
   13       -0.0000000000000000
   14        0.0000000000000000
   15       -0.0165156767927132
   16       -0.0000000000000000
   17        0.0000000000000000
   18        0.0091687510325310
   19       -0.0000000000000000
   20        0.0000000000000000
   21       -0.9043392536422629
   22       -0.0000000000000000
   23        0.0000000000000000
   24        1.0717929672613622
   25       -0.0000000000000000
   26        0.0000000000000000
   27       -0.6296348244801238
   28       -0.0000000000000000
   29        0.0000000000000000
   30        0.1746013699416528
   31        0.2651808970251572
   32        0.0000000000000000
   33        0.0000000000000000
   34        0.0000000000000000
   35        0.0000000000000000
   36       -0.0033776832203614
   37       -0.1098710577878962
Sym= A
 Ene=   0.55596630790051838
Spin= Alpha
Occup=  0.0000
    1        0.0000000000000000
    2        0.0000000000000000
    3        0.0000000000000000
    4        0.0000000000000000
    5        0.0000000000000000
    6        0.0000000000000000
    7        0.0000000000000000
    8       -0.0000000000000000
    9        0.0000000000000000
   10        0.0000000000000000
   11        0.0000000000000000
   12        0.0000000000000000
   13        0.0000002398124286
   14        0.0212419571612834
   15        0.0000000000000000
   16       -0.0000000304722281
   17       -0.0125338918431839
   18        0.0000000000000000
   19        0.0000128930020261
   20        1.1519034066869993
   21        0.0000000000000000
   22       -0.0000137949565857
   23       -1.3080322941464340
   24        0.0000000000000000
   25        0.0000082309767503
   26        0.7867655513002401
   27        0.0000000000000000
   28       -0.0000024199289849
   29       -0.2191931800284005
   30        0.0000000000000000
   31       -0.0000000000000000
   32        0.0000045931193001
   33       -0.5324095397905787
   34        0.0000000000000000
   35        0.0000000000000000
   36       -0.0000000000000000
   37       -0.0000000000000000
Sym= A
 Ene=   0.55596630790066481
Spin= Alpha
Occup=  0.0000
    1        0.0000000000000000
    2        0.0000000000000000
    3        0.0000000000000000
    4        0.0000000000000000
    5       -0.0000000000000000
    6        0.0000000000000000
    7        0.0000000000000000
    8        0.0000000000000000
    9       -0.0000000000000000
   10       -0.0000000000000000
   11       -0.0000000000000000
   12       -0.0000000000000000
   13       -0.0212419430638197
   14        0.0000002411917646
   15       -0.0000000000000000
   16        0.0125338963963438
   17       -0.0000000276909033
   18        0.0000000000000000
   19       -1.1519026553492944
   20        0.0000129433693394
   21        0.0000000000000000
   22        1.3080315404291483
   23       -0.0000138048802137
   24        0.0000000000000000
   25       -0.7867651062871057
   26        0.0000085424462971
   27        0.0000000000000000
   28        0.2191930563036894
   29       -0.0000024832689690
   30        0.0000000000000000
   31        0.0000000000000000
   32        0.5324104197762817
   33        0.0000046160183436
   34        0.0000000000000000
   35        0.0000000000000000
   36        0.0000000000000000
   37        0.0000000000000000
Sym= A
 Ene=   0.56575453706172230
Spin= Alpha
Occup=  0.0000
    1       -0.0002106965906771
    2       -0.0024517943304510
    3       -0.0053921191577346
    4       -0.0851967138741661
    5        0.1419719944037378
    6       -0.3257017374901356
    7        0.4366280760829920
    8       -7.3172673505081978
    9        8.7766615313300225
   10       -2.7090563785231252
   11        1.3983010494224357
   12       -0.3358951278914695
   13       -0.0000000000000000
   14       -0.0000000000000000
   15        0.0144938054186335
   16       -0.0000000000000000
   17       -0.0000000000000000
   18        0.0029619579130752
   19       -0.0000000000000000
   20       -0.0000000000000000
   21        0.7647808666144037
   22       -0.0000000000000000
   23       -0.0000000000000000
   24       -0.9794258049901894
   25       -0.0000000000000000
   26       -0.0000000000000000
   27        0.5765469072503793
   28       -0.0000000000000000
   29       -0.0000000000000000
   30       -0.1583211629684783
   31       -0.4481392237816362
   32        0.0000000000000000
   33        0.0000000000000000
   34        0.0000000000000000
   35        0.0000000000000000
   36       -0.0054321860907057
   37        0.0969209266177972
Sym= A
 Ene=   0.58106496543264907
Spin= Alpha
Occup=  0.0000
    1       -0.0000000000000000
    2       -0.0000000000000000
    3       -0.0000000000000000
    4       -0.0000000000000000
    5        0.0000000000000000
    6       -0.0000000000000000
    7       -0.0000000000000000
    8       -0.0000000000000000
    9        0.0000000000000000
   10        0.0000000000000000
   11        0.0000000000000000
   12        0.0000000000000000
   13        0.0135321652858188
   14       -0.0000003847227929
   15        0.0000000000000000
   16        0.0044627015540616
   17        0.0000000474210559
   18       -0.0000000000000000
   19        0.7210999192479055
   20       -0.0000206855483113
   21       -0.0000000000000000
   22       -0.7234316677677848
   23        0.0000220790240537
   24       -0.0000000000000000
   25        0.4266498267031170