[Molden Format]
[GTO]
    1 0
 s  12 1.00
    6601.0000000    1.0000000000
     989.7000000    0.0000000000
     225.7000000    0.0000000000
      64.2900000    0.0000000000
      21.1800000    0.0000000000
       7.7240000    0.0000000000
       3.0030000    0.0000000000
       1.2120000    0.0000000000
       0.4930000    0.0000000000
       0.0951500    0.0000000000
       0.0479100    0.0000000000
       0.0222000    0.0000000000
 s  12 1.00
    6601.0000000    0.0000000000
     989.7000000    1.0000000000
     225.7000000    0.0000000000
      64.2900000    0.0000000000
      21.1800000    0.0000000000
       7.7240000    0.0000000000
       3.0030000    0.0000000000
       1.2120000    0.0000000000
       0.4930000    0.0000000000
       0.0951500    0.0000000000
       0.0479100    0.0000000000
       0.0222000    0.0000000000
 s  12 1.00
    6601.0000000    0.0000000000
     989.7000000    0.0000000000
     225.7000000    1.0000000000
      64.2900000    0.0000000000
      21.1800000    0.0000000000
       7.7240000    0.0000000000
       3.0030000    0.0000000000
       1.2120000    0.0000000000
       0.4930000    0.0000000000
       0.0951500    0.0000000000
       0.0479100    0.0000000000
       0.0222000    0.0000000000
 s  12 1.00
    6601.0000000    0.0000000000
     989.7000000    0.0000000000
     225.7000000    0.0000000000
      64.2900000    1.0000000000
      21.1800000    0.0000000000
       7.7240000    0.0000000000
       3.0030000    0.0000000000
       1.2120000    0.0000000000
       0.4930000    0.0000000000
       0.0951500    0.0000000000
       0.0479100    0.0000000000
       0.0222000    0.0000000000
 s  12 1.00
    6601.0000000    0.0000000000
     989.7000000    0.0000000000
     225.7000000    0.0000000000
      64.2900000    0.0000000000
      21.1800000    1.0000000000
       7.7240000    0.0000000000
       3.0030000    0.0000000000
       1.2120000    0.0000000000
       0.4930000    0.0000000000
       0.0951500    0.0000000000
       0.0479100    0.0000000000
       0.0222000    0.0000000000
 s  12 1.00
    6601.0000000    0.0000000000
     989.7000000    0.0000000000
     225.7000000    0.0000000000
      64.2900000    0.0000000000
      21.1800000    0.0000000000
       7.7240000    1.0000000000
       3.0030000    0.0000000000
       1.2120000    0.0000000000
       0.4930000    0.0000000000
       0.0951500    0.0000000000
       0.0479100    0.0000000000
       0.0222000    0.0000000000
 s  12 1.00
    6601.0000000    0.0000000000
     989.7000000    0.0000000000
     225.7000000    0.0000000000
      64.2900000    0.0000000000
      21.1800000    0.0000000000
       7.7240000    0.0000000000
       3.0030000    1.0000000000
       1.2120000    0.0000000000
       0.4930000    0.0000000000
       0.0951500    0.0000000000
       0.0479100    0.0000000000
       0.0222000    0.0000000000
 s  12 1.00
    6601.0000000    0.0000000000
     989.7000000    0.0000000000
     225.7000000    0.0000000000
      64.2900000    0.0000000000
      21.1800000    0.0000000000
       7.7240000    0.0000000000
       3.0030000    0.0000000000
       1.2120000    1.0000000000
       0.4930000    0.0000000000
       0.0951500    0.0000000000
       0.0479100    0.0000000000
       0.0222000    0.0000000000
 s  12 1.00
    6601.0000000    0.0000000000
     989.7000000    0.0000000000
     225.7000000    0.0000000000
      64.2900000    0.0000000000
      21.1800000    0.0000000000
       7.7240000    0.0000000000
       3.0030000    0.0000000000
       1.2120000    0.0000000000
       0.4930000    1.0000000000
       0.0951500    0.0000000000
       0.0479100    0.0000000000
       0.0222000    0.0000000000
 s  12 1.00
    6601.0000000    0.0000000000
     989.7000000    0.0000000000
     225.7000000    0.0000000000
      64.2900000    0.0000000000
      21.1800000    0.0000000000
       7.7240000    0.0000000000
       3.0030000    0.0000000000
       1.2120000    0.0000000000
       0.4930000    0.0000000000
       0.0951500    1.0000000000
       0.0479100    0.0000000000
       0.0222000    0.0000000000
 s  12 1.00
    6601.0000000    0.0000000000
     989.7000000    0.0000000000
     225.7000000    0.0000000000
      64.2900000    0.0000000000
      21.1800000    0.0000000000
       7.7240000    0.0000000000
       3.0030000    0.0000000000
       1.2120000    0.0000000000
       0.4930000    0.0000000000
       0.0951500    0.0000000000
       0.0479100    1.0000000000
       0.0222000    0.0000000000
 s  12 1.00
    6601.0000000    0.0000000000
     989.7000000    0.0000000000
     225.7000000    0.0000000000
      64.2900000    0.0000000000
      21.1800000    0.0000000000
       7.7240000    0.0000000000
       3.0030000    0.0000000000
       1.2120000    0.0000000000
       0.4930000    0.0000000000
       0.0951500    0.0000000000
       0.0479100    0.0000000000
       0.0222000    1.0000000000
 p   6 1.00
       6.2500000    1.0000000000
       1.3700000    0.0000000000
       0.3672000    0.0000000000
       0.1192000    0.0000000000
       0.0447400    0.0000000000
       0.0179500    0.0000000000
 p   6 1.00
       6.2500000    0.0000000000
       1.3700000    1.0000000000
       0.3672000    0.0000000000
       0.1192000    0.0000000000
       0.0447400    0.0000000000
       0.0179500    0.0000000000
 p   6 1.00
       6.2500000    0.0000000000
       1.3700000    0.0000000000
       0.3672000    1.0000000000
       0.1192000    0.0000000000
       0.0447400    0.0000000000
       0.0179500    0.0000000000
 p   6 1.00
       6.2500000    0.0000000000
       1.3700000    0.0000000000
       0.3672000    0.0000000000
       0.1192000    1.0000000000
       0.0447400    0.0000000000
       0.0179500    0.0000000000
 p   6 1.00
       6.2500000    0.0000000000
       1.3700000    0.0000000000
       0.3672000    0.0000000000
       0.1192000    0.0000000000
       0.0447400    1.0000000000
       0.0179500    0.0000000000
 p   6 1.00
       6.2500000    0.0000000000
       1.3700000    0.0000000000
       0.3672000    0.0000000000
       0.1192000    0.0000000000
       0.0447400    0.0000000000
       0.0179500    1.0000000000
 d   3 1.00
       0.3440000    1.0000000000
       0.1530000    0.0000000000
       0.0680000    0.0000000000
 d   3 1.00
       0.3440000    0.0000000000
       0.1530000    1.0000000000
       0.0680000    0.0000000000
 d   3 1.00
       0.3440000    0.0000000000
       0.1530000    0.0000000000
       0.0680000    1.0000000000
 f   2 1.00
       0.2460000    1.0000000000
       0.1292000    0.0000000000
 f   2 1.00
       0.2460000    0.0000000000
       0.1292000    1.0000000000
 g   1 1.00
       0.2380000    1.0000000000

    2 0
 s   6 1.00
      82.6400000    1.0000000000
      12.4100000    0.0000000000
       2.8240000    0.0000000000
       0.7977000    0.0000000000
       0.2581000    0.0000000000
       0.0898900    0.0000000000
 s   6 1.00
      82.6400000    0.0000000000
      12.4100000    1.0000000000
       2.8240000    0.0000000000
       0.7977000    0.0000000000
       0.2581000    0.0000000000
       0.0898900    0.0000000000
 s   6 1.00
      82.6400000    0.0000000000
      12.4100000    0.0000000000
       2.8240000    1.0000000000
       0.7977000    0.0000000000
       0.2581000    0.0000000000
       0.0898900    0.0000000000
 s   6 1.00
      82.6400000    0.0000000000
      12.4100000    0.0000000000
       2.8240000    0.0000000000
       0.7977000    1.0000000000
       0.2581000    0.0000000000
       0.0898900    0.0000000000
 s   6 1.00
      82.6400000    0.0000000000
      12.4100000    0.0000000000
       2.8240000    0.0000000000
       0.7977000    0.0000000000
       0.2581000    1.0000000000
       0.0898900    0.0000000000
 s   6 1.00
      82.6400000    0.0000000000
      12.4100000    0.0000000000
       2.8240000    0.0000000000
       0.7977000    0.0000000000
       0.2581000    0.0000000000
       0.0898900    1.0000000000
 p   3 1.00
       2.2920000    1.0000000000
       0.8380000    0.0000000000
       0.2920000    0.0000000000
 p   3 1.00
       2.2920000    0.0000000000
       0.8380000    1.0000000000
       0.2920000    0.0000000000
 p   3 1.00
       2.2920000    0.0000000000
       0.8380000    0.0000000000
       0.2920000    1.0000000000
 d   2 1.00
       2.0620000    1.0000000000
       0.6620000    0.0000000000
 d   2 1.00
       2.0620000    0.0000000000
       0.6620000    1.0000000000
 f   1 1.00
       1.3970000    1.0000000000

*** Dalton interface to Molden, wave function type :
HF          14Jul22   23:50:50
[Atoms] AU
Li         1     3         0.0000000000         0.0000000000        -0.545857052
H          2     1         0.0000000000         0.0000000000         2.309057052
[5D7F]
[9G]
[MO]
Sym= A
 Ene=   -2.4378747146387192
Spin= Alpha
Occup=  2.0000
    1       -0.0001173219087854
    2       -0.0009097881581168
    3       -0.0047218183184565
    4       -0.0191766604285508
    5       -0.0629640824844500
    6       -0.1630377875875170
    7       -0.3143150481759358
    8       -0.3927859091475888
    9       -0.1988971298295082
   10       -0.0003185052583394
   11        0.0029662104234085
   12       -0.0006273503737981
   13        0.0000000000000000
   14        0.0000000000000000
   15        0.0004635738571098
   16       -0.0000000000000000
   17       -0.0000000000000000
   18        0.0053129930884334
   19        0.0000000000000000
   20        0.0000000000000000
   21        0.0080217927916984
   22        0.0000000000000000
   23        0.0000000000000000
   24        0.0059092853136320
   25        0.0000000000000000
   26        0.0000000000000001
   27       -0.0002042901795477
   28        0.0000000000000000
   29        0.0000000000000000
   30        0.0001623738372848
   31        0.0017652646829919
   32       -0.0000000000000000
   33       -0.0000000000000000
   34        0.0000000000000001
   35        0.0000000000000000
   36        0.0034244640442931
   37       -0.0000000000000000
   38       -0.0000000000000000
   39       -0.0000000000000001
   40        0.0000000000000000
   41        0.0001538329886808
   42        0.0000000000000000
   43        0.0000000000000000
   44        0.0000000000000000
   45        0.0000000000000000
   46        0.0016139391157624
   47       -0.0000000000000000
   48       -0.0000000000000000
   49       -0.0000000000000000
   50        0.0000000000000000
   51        0.0000000000000000
   52       -0.0000000000000000
   53        0.0005994840057808
   54       -0.0000000000000000
   55       -0.0000000000000000
   56        0.0000000000000000
   57        0.0000000000000000
   58       -0.0000000000000000
   59        0.0000000000000000
   60        0.0006207842272930
   61       -0.0000000000000000
   62       -0.0000000000000000
   63       -0.0000000000000000
   64        0.0000000000000000
   65       -0.0000000000000000
   66       -0.0000000000000000
   67        0.0000000000000000
   68        0.0000000000000000
   69       -0.0000197286816581
   70       -0.0001585453678780
   71       -0.0005943007755734
   72       -0.0015579077832386
   73       -0.0124100579662458
   74       -0.0027839180089192
   75       -0.0000000000000000
   76       -0.0000000000000000
   77        0.0000176910607695
   78        0.0000000000000000
   79        0.0000000000000000
   80        0.0011426107118035
   81        0.0000000000000000
   82        0.0000000000000000
   83        0.0043432800796798
   84       -0.0000458656600862
   85        0.0000000000000000
   86        0.0000000000000000
   87        0.0000000000000000
   88        0.0000000000000000
   89       -0.0007743388967170
   90       -0.0000000000000000
   91       -0.0000000000000000
   92        0.0000000000000000
   93        0.0000000000000000
   94        0.0001072669071955
   95       -0.0000000000000000
   96       -0.0000000000000000
   97        0.0000000000000000
   98        0.0000000000000000
   99        0.0000000000000000
  100        0.0000000000000000
Sym= A
 Ene=  -0.30622051107070231
Spin= Alpha
Occup=  2.0000
    1        0.0000137241125133
    2        0.0001071044706482
    3        0.0005520554106799
    4        0.0022816925765455
    5        0.0074911188262996
    6        0.0205508720342368
    7        0.0415870332911245
    8        0.0725407022986396
    9        0.0710839759193560
   10       -0.1445148803867751
   11       -0.1325453536610954
   12       -0.0410335093968924
   13        0.0000000000000000
   14       -0.0000000000000000
   15       -0.0025527003995346
   16       -0.0000000000000000
   17        0.0000000000000000
   18       -0.0150873710807073
   19        0.0000000000000000
   20       -0.0000000000000000
   21       -0.0572317731499706
   22        0.0000000000000000
   23       -0.0000000000000000
   24       -0.1050445831655970
   25        0.0000000000000000
   26       -0.0000000000000000
   27       -0.0598442791714052
   28        0.0000000000000000
   29       -0.0000000000000000
   30       -0.0072788739697537
   31       -0.0091122381417342
   32       -0.0000000000000000
   33        0.0000000000000000
   34        0.0000000000000005
   35        0.0000000000000000
   36       -0.0036027307069178
   37       -0.0000000000000000
   38        0.0000000000000000
   39       -0.0000000000000008
   40        0.0000000000000000
   41       -0.0168130304963633
   42        0.0000000000000000
   43       -0.0000000000000000
   44        0.0000000000000004
   45        0.0000000000000000
   46       -0.0012446598535292
   47       -0.0000000000000000
   48        0.0000000000000000
   49        0.0000000000000001
   50        0.0000000000000000
   51        0.0000000000000000
   52        0.0000000000000000
   53       -0.0012883550655246
   54       -0.0000000000000000
   55        0.0000000000000000
   56       -0.0000000000000001
   57        0.0000000000000000
   58       -0.0000000000000000
   59       -0.0000000000000000
   60       -0.0006678554404339
   61       -0.0000000000000000
   62        0.0000000000000000
   63       -0.0000000000000000
   64        0.0000000000000000
   65       -0.0000000000000000
   66        0.0000000000000000
   67        0.0000000000000000
   68        0.0000000000000000
   69       -0.0015615242216421
   70       -0.0118464580762430
   71       -0.0563406318389260
   72       -0.1687548992958330
   73       -0.3223963680864333
   74       -0.2544302206650612
   75       -0.0000000000000000
   76        0.0000000000000000
   77        0.0008120994804812
   78        0.0000000000000000
   79       -0.0000000000000000
   80        0.0046452195415718
   81        0.0000000000000000
   82       -0.0000000000000000
   83        0.0217661288893020
   84        0.0002056519421300
   85        0.0000000000000000
   86       -0.0000000000000000
   87        0.0000000000000001
   88        0.0000000000000000
   89       -0.0032968525760702
   90       -0.0000000000000000
   91        0.0000000000000000
   92        0.0000000000000001
   93        0.0000000000000000
   94        0.0004909924949514
   95       -0.0000000000000000
   96        0.0000000000000000
   97        0.0000000000000000
   98        0.0000000000000000
   99        0.0000000000000000
  100       -0.0000000000000000
Sym= A
 Ene=   -1.8407859502575729E-003
Spin= Alpha
Occup=  0.0000
    1        0.0000062058525793
    2        0.0000442859063897
    3        0.0002596855774025
    4        0.0008974304518711
    5        0.0037132517605707
    6        0.0073238351754197
    7        0.0232222299323486
    8        0.0170996100898975
    9        0.0640310056991459
   10       -0.2696250057024272
   11        0.5249753693787301
   12       -1.0920133987916079
   13        0.0000000000000000
   14       -0.0000000000000000
   15        0.0011665267742032
   16       -0.0000000000000000
   17        0.0000000000000000
   18        0.0091014595382398
   19        0.0000000000000000
   20       -0.0000000000000000
   21        0.0143641878973662
   22        0.0000000000000001
   23       -0.0000000000000000
   24        0.0877049457029505
   25        0.0000000000000001
   26       -0.0000000000000000
   27        0.1082230943488997
   28        0.0000000000000001
   29       -0.0000000000000000
   30        0.4751708962282836
   31       -0.0121703023858880
   32       -0.0000000000000000
   33        0.0000000000000000
   34        0.0000000000000005
   35        0.0000000000000000
   36        0.0108509691314325
   37       -0.0000000000000000
   38        0.0000000000000000
   39       -0.0000000000000008
   40        0.0000000000000000
   41       -0.0632226968362785
   42        0.0000000000000000
   43       -0.0000000000000000
   44        0.0000000000000004
   45        0.0000000000000000
   46       -0.0033287510612959
   47       -0.0000000000000000
   48        0.0000000000000000
   49       -0.0000000000000001
   50        0.0000000000000000
   51        0.0000000000000000
   52        0.0000000000000000
   53        0.0009960432710066
   54       -0.0000000000000000
   55        0.0000000000000000
   56        0.0000000000000002
   57        0.0000000000000000
   58       -0.0000000000000000
   59       -0.0000000000000000
   60        0.0010531720079424
   61       -0.0000000000000000
   62        0.0000000000000000
   63       -0.0000000000000000
   64        0.0000000000000000
   65       -0.0000000000000000
   66        0.0000000000000000
   67        0.0000000000000001
   68        0.0000000000000000
   69        0.0002456410577171
   70        0.0017978885637633
   71        0.0091438615809702
   72        0.0233074520545902
   73        0.0678067878814880
   74        0.0876420840339877
   75       -0.0000000000000000
   76        0.0000000000000000
   77        0.0001147091001133
   78        0.0000000000000000
   79       -0.0000000000000000
   80       -0.0003451277947354
   81        0.0000000000000000
   82       -0.0000000000000000
   83       -0.0171186983932844
   84       -0.0006995829672245
   85        0.0000000000000000
   86       -0.0000000000000000
   87       -0.0000000000000001
   88        0.0000000000000000
   89        0.0048867556843941
   90       -0.0000000000000000
   91        0.0000000000000000
   92        0.0000000000000001
   93        0.0000000000000000
   94       -0.0003266353738225
   95       -0.0000000000000000
   96        0.0000000000000000
   97       -0.0000000000000000
   98        0.0000000000000000
   99        0.0000000000000000
  100       -0.0000000000000000
Sym= A
 Ene=    3.0718635805948021E-002
Spin= Alpha
Occup=  0.0000
    1       -0.0000000000000000
    2       -0.0000000000000000
    3       -0.0000000000000000
    4       -0.0000000000000000
    5       -0.0000000000000000
    6       -0.0000000000000000
    7       -0.0000000000000000
    8       -0.0000000000000000
    9       -0.0000000000000000
   10       -0.0000000000000000
   11       -0.0000000000000001
   12       -0.0000000000000000
   13       -0.0000007227284669
   14       -0.0005084675090859
   15        0.0000000000000000
   16       -0.0000113275425260
   17       -0.0079692925616993
   18       -0.0000000000000000
   19        0.0000049186413380
   20        0.0034590802967134
   21       -0.0000000000000000
   22       -0.0002287137715849
   23       -0.1608926980899258
   24       -0.0000000000000000
   25        0.0004037871944383
   26        0.2840954941241161
   27       -0.0000000000000001
   28       -0.0016356441485342
   29       -1.1507333184408430
   30       -0.0000000000000000
   31        0.0000000000000000
   32        0.0000174985740382
   33        0.0123001165314089
   34        0.0000000000000000
   35        0.0000000000000000
   36        0.0000000000000000
   37       -0.0000651956044171
   38       -0.0458575752908822
   39       -0.0000000000000000
   40        0.0000000000000000
   41       -0.0000000000000000
   42        0.0001725469284583
   43        0.1214352050903380
   44        0.0000000000000000
   45        0.0000000000000000
   46        0.0000000000000000
   47       -0.0000054443390589
   48       -0.0038725126756022
   49        0.0000000000000000
   50        0.0000000000000000
   51       -0.0000000000000000
   52        0.0000000000000001
   53        0.0000000000000000
   54       -0.0000059826653326
   55       -0.0039887552388418
   56       -0.0000000000000000
   57        0.0000000000000000
   58        0.0000000000000000
   59       -0.0000000000000002
   60        0.0000000000000000
   61       -0.0000060425715915
   62       -0.0042317657379050
   63        0.0000000000000000
   64        0.0000000000000000
   65        0.0000000000000000
   66       -0.0000000000000000
   67        0.0000000000000000
   68        0.0000000000000000
   69        0.0000000000000000
   70        0.0000000000000000
   71        0.0000000000000000
   72        0.0000000000000000
   73        0.0000000000000001
   74        0.0000000000000000
   75       -0.0000009824723209
   76       -0.0006923047335840
   77       -0.0000000000000000
   78        0.0000000565994302
   79        0.0000513119294847
   80        0.0000000000000000
   81        0.0000060719453797
   82        0.0042182723149228
   83        0.0000000000000000
   84       -0.0000000000000000
   85        0.0000009495328364
   86        0.0006682094860421
   87        0.0000000000000000
   88        0.0000000000000000
   89       -0.0000000000000000
   90       -0.0000043390270018
   91       -0.0030547656209956
   92       -0.0000000000000000
   93        0.0000000000000000
   94        0.0000000000000000
   95       -0.0000004757526292
   96       -0.0003317743209740
   97        0.0000000000000000
   98        0.0000000000000000
   99       -0.0000000000000000
  100       -0.0000000000000000
Sym= A
 Ene=    3.0718635805951230E-002
Spin= Alpha
Occup=  0.0000
    1        0.0000000000000000
    2        0.0000000000000000
    3        0.0000000000000000
    4        0.0000000000000000
    5        0.0000000000000000
    6        0.0000000000000000
    7        0.0000000000000000
    8        0.0000000000000000
    9        0.0000000000000000
   10       -0.0000000000000001
   11       -0.0000000000000001
   12       -0.0000000000000001
   13       -0.0005084675096163
   14        0.0000007242960151
   15       -0.0000000000000000
   16       -0.0079692925611892
   17        0.0000113161987311
   18        0.0000000000000000
   19        0.0034590802882708
   20       -0.0000048391744731
   21        0.0000000000000000
   22       -0.1608926980700374
   23        0.0002287384784026
   24        0.0000000000000000
   25        0.2840954941104550
   26       -0.0004038221986584
   27        0.0000000000000000
   28       -1.1507333184359390
   29        0.0016356601506332
   30        0.0000000000000000
   31       -0.0000000000000000
   32        0.0123001165343936
   33       -0.0000175046641627
   34        0.0000000000000000
   35        0.0000000000000000
   36       -0.0000000000000000
   37       -0.0458575752949841
   38        0.0000651978767375
   39       -0.0000000000000000
   40        0.0000000000000000
   41        0.0000000000000000
   42        0.1214352051005985
   43       -0.0001724662308032
   44        0.0000000000000000
   45        0.0000000000000000
   46       -0.0000000000000000
   47       -0.0038725126740511
   48        0.0000054761380591
   49       -0.0000000000000000
   50        0.0000000000000000
   51       -0.0000000000000002
   52       -0.0000000000000000
   53       -0.0000000000000000
   54       -0.0039887552394957
   55        0.0000059599967684
   56        0.0000000000000000
   57        0.0000000000000000
   58        0.0000000000000003
   59        0.0000000000000000
   60       -0.0000000000000000
   61       -0.0042317657369852
   62        0.0000060603987336
   63        0.0000000000000000
   64        0.0000000000000000
   65        0.0000000000000000
   66        0.0000000000000000
   67        0.0000000000000000
   68        0.0000000000000000
   69        0.0000000000000000
   70        0.0000000000000000
   71        0.0000000000000000
   72        0.0000000000000000
   73        0.0000000000000001
   74        0.0000000000000000
   75       -0.0006923047338697
   76        0.0000009823161309
   77        0.0000000000000000
   78        0.0000513119299937
   79       -0.0000000544415384
   80        0.0000000000000000
   81        0.0042182723124015
   82       -0.0000061087293578
   83       -0.0000000000000000
   84       -0.0000000000000000
   85        0.0006682094855658
   86       -0.0000009507211351
   87       -0.0000000000000000
   88        0.0000000000000000
   89        0.0000000000000000
   90       -0.0030547656198438
   91        0.0000043521559213
   92        0.0000000000000000
   93        0.0000000000000000
   94       -0.0000000000000000
   95       -0.0003317743227589
   96        0.0000004754812787
   97        0.0000000000000000
   98        0.0000000000000000
   99       -0.0000000000000000
  100        0.0000000000000000
Sym= A
 Ene=    5.7485552704282378E-002
Spin= Alpha
Occup=  0.0000
    1       -0.0000017169987267
    2       -0.0000125589145270
    3       -0.0000710997564471
    4       -0.0002578817204295
    5       -0.0010045373720318
    6       -0.0021204432400849
    7       -0.0064873629332130
    8       -0.0004493576238822
    9       -0.0638551991766589
   10        0.5854351612932956
   11       -1.2846313167797394
   12        0.8922772213282453
   13       -0.0000000000000000
   14       -0.0000000000000000
   15       -0.0005086680753496
   16        0.0000000000000000
   17        0.0000000000000000
   18       -0.0117135984154974
   19       -0.0000000000000000
   20       -0.0000000000000000
   21       -0.0028762127059823
   22       -0.0000000000000000
   23       -0.0000000000000000
   24        0.3503137892942602
   25       -0.0000000000000001
   26       -0.0000000000000000
   27       -1.5159514022091036
   28       -0.0000000000000000
   29       -0.0000000000000000
   30        1.5479183573126585
   31        0.0218000595079541
   32        0.0000000000000000
   33        0.0000000000000000
   34       -0.0000000000000002
   35        0.0000000000000000
   36        0.2584845046819529
   37        0.0000000000000000
   38        0.0000000000000000
   39        0.0000000000000004
   40        0.0000000000000000
   41       -0.3982211432081937
   42       -0.0000000000000000
   43       -0.0000000000000000
   44       -0.0000000000000002
   45        0.0000000000000000
   46        0.0972161829695192
   47        0.0000000000000000
   48        0.0000000000000000
   49        0.0000000000000001
   50        0.0000000000000000
   51       -0.0000000000000000
   52        0.0000000000000000
   53       -0.0420948486653050
   54        0.0000000000000000
   55        0.0000000000000000
   56       -0.0000000000000000
   57        0.0000000000000000
   58        0.0000000000000000
   59       -0.0000000000000000
   60        0.0275253437255622
   61        0.0000000000000000
   62        0.0000000000000000
   63        0.0000000000000000
   64        0.0000000000000000
   65        0.0000000000000000
   66        0.0000000000000000
   67       -0.0000000000000000
   68        0.0000000000000000
   69       -0.0003558417774386
   70       -0.0019583774477153
   71       -0.0152640622267924
   72       -0.0055002242621565
   73       -0.5595988062564975
   74        0.7175274509146020
   75        0.0000000000000000
   76        0.0000000000000000
   77       -0.0011050768842602
   78       -0.0000000000000000
   79       -0.0000000000000000
   80        0.0053915133653312
   81       -0.0000000000000000
   82       -0.0000000000000000
   83        0.1511552065937304
   84        0.0013463603494684
   85       -0.0000000000000000
   86       -0.0000000000000000
   87        0.0000000000000000
   88        0.0000000000000000
   89       -0.0125902851290454
   90        0.0000000000000000
   91        0.0000000000000000
   92       -0.0000000000000001
   93        0.0000000000000000
   94        0.0011340277495214
   95        0.0000000000000000
   96        0.0000000000000000
   97        0.0000000000000000
   98        0.0000000000000000
   99       -0.0000000000000000
  100       -0.0000000000000000
Sym= A
 Ene=    7.7918250828055702E-002
Spin= Alpha
Occup=  0.0000
    1        0.0000092444698721
    2        0.0000861427655521
    3        0.0003378456658863
    4        0.0019898645536997
    5        0.0039362477557221
    6        0.0204415007231800
    7        0.0128237072726992
    8        0.0989608126544312
    9       -0.0547283397133523
   10        1.3377612525614142
   11       -3.6791670591071743
   12        2.5200230850506560
   13        0.0000000000000000
   14       -0.0000000000000000
   15        0.0024489189790607
   16       -0.0000000000000000
   17        0.0000000000000000
   18       -0.0030943035730263
   19        0.0000000000000000
   20       -0.0000000000000000
   21        0.0892119656461717
   22        0.0000000000000000
   23       -0.0000000000000000
   24        0.2276483425687650
   25        0.0000000000000001
   26       -0.0000000000000000
   27        0.4996697284277142
   28        0.0000000000000000
   29       -0.0000000000000000
   30       -0.3379458192334531
   31        0.0303581158758153
   32       -0.0000000000000000
   33        0.0000000000000000
   34        0.0000000000000006
   35        0.0000000000000000
   36        0.1064230500256156
   37       -0.0000000000000000
   38        0.0000000000000000
   39       -0.0000000000000010
   40        0.0000000000000000
   41       -0.1608491694395355
   42        0.0000000000000000
   43       -0.0000000000000000
   44        0.0000000000000006
   45        0.0000000000000000
   46        0.0450707949457106
   47       -0.0000000000000000
   48        0.0000000000000000