[Molden Format]
[GTO]
    1 0
 s   1 1.00
       6.1638450    1.0000000000
 p   1 1.00
       0.2459160    1.0000000000
 d   1 1.00
       0.0623710    1.0000000000

    2 0
 s   2 1.00
       1.3097564    1.0000000000
       0.2331360    0.0000000000
 s   2 1.00
       1.3097564    0.0000000000
       0.2331360    1.0000000000

*** Dalton interface to Molden, wave function type :
HF          14Jun22   00:59:13
[Atoms] AU
Li         1     3         0.0000000000         0.0000000000        -0.545857052
H          2     1         0.0000000000         0.0000000000         2.309057052
[5D7F]
[9G]
[MO]
Sym= A
 Ene=  -0.48297037942753673
Spin= Alpha
Occup=  2.0000
    1       -0.6445294821649059
    2       -0.0000000000000001
    3        0.0000000000000001
    4        0.2938088354723043
    5        0.2357321529366058
    6       -0.0000000000000000
    7       -0.0000000000000000
    8        0.0000000000000000
    9        0.0000000000000000
   10        0.0044680584054967
   11       -0.9155366122110377
Sym= A
 Ene=  -0.20688349020194496
Spin= Alpha
Occup=  2.0000
    1       -0.4613246976544599
    2       -0.0000000000000003
    3        0.0000000000000003
    4        0.6744133297169996
    5        0.2403434815702529
    6       -0.0000000000000000
    7       -0.0000000000000000
    8        0.0000000000000000
    9        0.0000000000000000
   10        0.2035013671311437
   11        0.1167026432925907
Sym= A
 Ene=   0.18711941636487633
Spin= Alpha
Occup=  0.0000
    1        0.0000000000000000
    2        0.0000000000000000
    3        0.0000000000000000
    4        0.0000000000000000
    5        0.0000000000000000
    6        0.0000000000000000
    7        0.0000000000000000
    8        1.0000000000000002
    9        0.0000000000000000
   10        0.0000000000000000
   11        0.0000000000000000
Sym= A
 Ene=   0.18711941636487650
Spin= Alpha
Occup=  0.0000
    1        0.0000000000000000
    2        0.0000000000000000
    3        0.0000000000000000
    4        0.0000000000000000
    5        0.0000000000000000
    6        0.0000000000000000
    7        0.0000000000000000
    8        0.0000000000000000
    9        1.0000000000000000
   10        0.0000000000000000
   11        0.0000000000000000
Sym= A
 Ene=   0.18859688691572812
Spin= Alpha
Occup=  0.0000
    1        0.0839883203965265
    2        0.0000000000000000
    3       -0.0000000000000003
    4       -0.2258066466098704
    5        0.9980113549378873
    6        0.0000000000000000
    7        0.0000000000000000
    8        0.0000000000000000
    9        0.0000000000000000
   10        0.0289773538560248
   11       -0.1748580454399310
Sym= A
 Ene=   0.19881481114474323
Spin= Alpha
Occup=  0.0000
    1       -0.0000000000000000
    2       -0.0603785361179492
    3       -0.0002267161789945
    4       -0.0000000000000000
    5       -0.0000000000000000
    6        0.9981684893843439
    7        0.0037480363131664
    8        0.0000000000000000
    9        0.0000000000000000
   10       -0.0000000000000000
   11        0.0000000000000000
Sym= A
 Ene=   0.19881481114474342
Spin= Alpha
Occup=  0.0000
    1        0.0000000000000000
    2        0.0002267161789945
    3       -0.0603785361179492
    4        0.0000000000000001
    5        0.0000000000000000
    6       -0.0037480363131664
    7        0.9981684893843440
    8        0.0000000000000000
    9        0.0000000000000000
   10       -0.0000000000000000
   11       -0.0000000000000000
Sym= A
 Ene=   0.28969140857148618
Spin= Alpha
Occup=  0.0000
    1        0.0000000000000001
    2        0.9843870037626716
    3        0.1653378595457718
    4        0.0000000000000004
    5        0.0000000000000002
    6        0.0595449033833791
    7        0.0100011751827651
    8        0.0000000000000000
    9        0.0000000000000000
   10        0.0000000000000002
   11       -0.0000000000000004
Sym= A
 Ene=   0.28969140857148629
Spin= Alpha
Occup=  0.0000
    1       -0.0000000000000001
    2       -0.1653378595457718
    3        0.9843870037626719
    4       -0.0000000000000009
    5       -0.0000000000000001
    6       -0.0100011751827651
    7        0.0595449033833792
    8        0.0000000000000000
    9        0.0000000000000000
   10        0.0000000000000001
   11        0.0000000000000005
Sym= A
 Ene=   0.56085638801383486
Spin= Alpha
Occup=  0.0000
    1        0.5843244178115742
    2       -0.0000000000000004
    3        0.0000000000000006
    4        0.9278262528917455
    5        0.3345505408786967
    6       -0.0000000000000000
    7       -0.0000000000000000
    8        0.0000000000000000
    9        0.0000000000000000
   10       -0.1174540746794473
   11       -0.7793579938904551
Sym= A
 Ene=    1.7802274402894942
Spin= Alpha
Occup=  0.0000
    1       -0.1627376979188789
    2        0.0000000000000002
    3        0.0000000000000001
    4       -0.0736509364702131
    5       -0.0500254079840484
    6        0.0000000000000000
    7       -0.0000000000000000
    8        0.0000000000000000
    9        0.0000000000000000
   10       -1.2410918963402069
   11        0.9438876110802366
