[Molden Format]
[GTO]
    1 0
 s   4 1.00
       6.1638450    1.0000000000
       1.0971610    0.0000000000
       0.2459160    0.0000000000
       0.0623710    0.0000000000
 s   4 1.00
       6.1638450    0.0000000000
       1.0971610    1.0000000000
       0.2459160    0.0000000000
       0.0623710    0.0000000000
 s   4 1.00
       6.1638450    0.0000000000
       1.0971610    0.0000000000
       0.2459160    1.0000000000
       0.0623710    0.0000000000
 s   4 1.00
       6.1638450    0.0000000000
       1.0971610    0.0000000000
       0.2459160    0.0000000000
       0.0623710    1.0000000000
 p   2 1.00
       0.2459160    1.0000000000
       0.0623710    0.0000000000
 p   2 1.00
       0.2459160    0.0000000000
       0.0623710    1.0000000000

    2 0
 s   2 1.00
       1.3097564    1.0000000000
       0.2331360    0.0000000000
 s   2 1.00
       1.3097564    0.0000000000
       0.2331360    1.0000000000

*** Dalton interface to Molden, wave function type :
HF          25Jun22   15:21:42
[Atoms] AU
Li         1     3         0.0000000000         0.0000000000        -0.545857052
H          2     1         0.0000000000         0.0000000000         2.309057052
[5D7F]
[9G]
[MO]
Sym= A
 Ene=   -2.3253570579462188
Spin= Alpha
Occup=  2.0000
    1       -0.3928907425953393
    2       -0.6582859402628418
    3       -0.0862735784502632
    4        0.0057389222922865
    5        0.0000000000000000
    6        0.0000000000000000
    7        0.0086010573976798
    8        0.0000000000000000
    9        0.0000000000000001
   10       -0.0017886465875881
   11       -0.0026932592971183
   12       -0.0040435665454117
Sym= A
 Ene=  -0.29717182044554624
Spin= Alpha
Occup=  2.0000
    1        0.0509952909396889
    2        0.1342420328819113
    3        0.0425443478256146
    4       -0.4344502639101455
    5        0.0000000000000000
    6       -0.0000000000000000
    7       -0.1147889353858895
    8        0.0000000000000000
    9       -0.0000000000000000
   10       -0.2004079875101665
   11       -0.1806256346784951
   12       -0.4816056038498404
Sym= A
 Ene=    3.5446510848046085E-002
Spin= Alpha
Occup=  0.0000
    1        0.0442406405268458
    2        0.0852813604422621
    3        0.2096899583181660
    4       -0.8725342286650162
    5        0.0000000000000000
    6       -0.0000000000000000
    7        0.0660127036574147
    8        0.0000000000000003
    9       -0.0000000000000000
   10        0.6324875217119308
   11        0.0380497713276929
   12        0.0534407291410161
Sym= A
 Ene=    9.6443496528032663E-002
Spin= Alpha
Occup=  0.0000
    1       -0.0000000000000001
    2       -0.0000000000000001
    3        0.0000000000000000
    4       -0.0000000000000001
    5       -0.0001068676517777
    6       -0.0436357350295652
    7       -0.0000000000000000
    8       -0.0023856902907886
    9       -0.9741146891483968
   10       -0.0000000000000001
   11        0.0000000000000001
   12        0.0000000000000002
Sym= A
 Ene=    9.6443496528032913E-002
Spin= Alpha
Occup=  0.0000
    1        0.0000000000000000
    2        0.0000000000000000
    3        0.0000000000000001
    4       -0.0000000000000004
    5       -0.0436357350295641
    6        0.0001068676517777
    7        0.0000000000000000
    8       -0.9741146891483976
    9        0.0023856902907886
   10        0.0000000000000001
   11        0.0000000000000001
   12        0.0000000000000001
Sym= A
 Ene=   0.27558746879230223
Spin= Alpha
Occup=  0.0000
    1       -0.0067171565074065
    2        0.0034923116864866
    3       -0.2091001119542222
    4        0.9758935186184815
    5       -0.0000000000000000
    6       -0.0000000000000000
    7       -0.1916889638678181
    8       -0.0000000000000001
    9       -0.0000000000000001
   10        1.1449877343230188
   11       -0.0777312544092522
   12       -1.1099974236657042
Sym= A
 Ene=   0.49356578393825085
Spin= Alpha
Occup=  0.0000
    1        0.0000000000000000
    2        0.0000000000000000
    3        0.0000000000000000
    4       -0.0000000000000000
    5       -1.2253262627480352
    6        0.0000084635344584
    7        0.0000000000000000
    8        0.7445961454941006
    9       -0.0000051430507340
   10        0.0000000000000000
   11        0.0000000000000000
   12        0.0000000000000000
Sym= A
 Ene=   0.49356578393825135
Spin= Alpha
Occup=  0.0000
    1       -0.0000000000000000
    2       -0.0000000000000000
    3        0.0000000000000000
    4       -0.0000000000000000
    5       -0.0000084635344584
    6       -1.2253262627480355
    7       -0.0000000000000000
    8        0.0000051430507340
    9        0.7445961454941017
   10       -0.0000000000000000
   11        0.0000000000000000
   12        0.0000000000000000
Sym= A
 Ene=   0.51436757540222333
Spin= Alpha
Occup=  0.0000
    1       -0.0450726059167486
    2       -0.2385531151025666
    3        0.5727402374800393
    4       -0.6660260716568228
    5        0.0000000000000000
    6        0.0000000000000000
    7       -1.2319296862293923
    8        0.0000000000000000
    9        0.0000000000000000
   10        0.3416650646156579
   11        0.0114883630257468
   12        0.6947412367070065
Sym= A
 Ene=   0.69614208612776418
Spin= Alpha
Occup=  0.0000
    1        0.1398278514262565
    2        0.7868101203533703
    3       -1.8241326139143001
    4        0.6976980915565576
    5        0.0000000000000000
    6        0.0000000000000000
    7       -0.4042652228000410
    8        0.0000000000000000
    9        0.0000000000000000
   10       -0.0191110462558162
   11       -0.0187067211167535
   12        0.5117925198423404
Sym= A
 Ene=    1.9265018127478430
Spin= Alpha
Occup=  0.0000
    1       -0.0293126968083566
    2       -0.0209427687069719
    3       -0.0151206276186862
    4       -0.3839877031695093
    5       -0.0000000000000000
    6       -0.0000000000000000
    7       -0.0516451393602121
    8       -0.0000000000000000
    9       -0.0000000000000000
   10       -0.3587751224869636
   11       -1.3173891876269244
   12        1.3700430749863755
Sym= A
 Ene=    6.3196953843748878
Spin= Alpha
Occup=  0.0000
    1       -1.2629790799293910
    2        1.5607758537293062
    3       -0.8785751549905392
    4        0.2824697954550007
    5       -0.0000000000000000
    6        0.0000000000000000
    7       -0.0167873455823528
    8       -0.0000000000000000
    9        0.0000000000000000
   10       -0.0104477643581505
   11        0.0457500193687651
   12        0.0177519458736631
