[Molden Format]
[GTO]
    1 0
 s   4 1.00
       6.1638450    1.0000000000
       1.0971610    0.0000000000
       0.2459160    0.0000000000
       0.0623710    0.0000000000
 s   4 1.00
       6.1638450    0.0000000000
       1.0971610    1.0000000000
       0.2459160    0.0000000000
       0.0623710    0.0000000000
 s   4 1.00
       6.1638450    0.0000000000
       1.0971610    0.0000000000
       0.2459160    1.0000000000
       0.0623710    0.0000000000
 s   4 1.00
       6.1638450    0.0000000000
       1.0971610    0.0000000000
       0.2459160    0.0000000000
       0.0623710    1.0000000000
 p   2 1.00
       0.2459160    1.0000000000
       0.0623710    0.0000000000
 p   2 1.00
       0.2459160    0.0000000000
       0.0623710    1.0000000000

    2 0
 s   2 1.00
       1.3097564    1.0000000000
       0.2331360    0.0000000000
 s   2 1.00
       1.3097564    0.0000000000
       0.2331360    1.0000000000

*** Dalton interface to Molden, wave function type :
HF          29Jul22   23:09:18
[Atoms] AU
Li         1     3         0.0000000000         0.0000000000        -0.545857052
H          2     1         0.0000000000         0.0000000000         2.309057052
[5D7F]
[9G]
[MO]
Sym= A
 Ene=   -2.3253570579424112
Spin= Alpha
Occup=  2.0000
    1       -0.3928907425952169
    2       -0.6582859402626899
    3       -0.0862735784504937
    4        0.0057389222923603
    5       -0.0000000000000000
    6        0.0000000000000000
    7        0.0086010573976226
    8       -0.0000000000000000
    9        0.0000000000000001
   10       -0.0017886465875696
   11       -0.0026932592982955
   12       -0.0040435665455307
Sym= A
 Ene=  -0.29717182044951429
Spin= Alpha
Occup=  2.0000
    1        0.0509952909423212
    2        0.1342420328895313
    3        0.0425443478242090
    4       -0.4344502639038138
    5        0.0000000000000000
    6        0.0000000000000000
    7       -0.1147889353932295
    8        0.0000000000000000
    9        0.0000000000000001
   10       -0.2004079875029362
   11       -0.1806256346813896
   12       -0.4816056038479493
Sym= A
 Ene=    3.5446510849650364E-002
Spin= Alpha
Occup=  0.0000
    1        0.0442406405261381
    2        0.0852813604395670
    3        0.2096899583215200
    4       -0.8725342286651497
    5        0.0000000000000000
    6        0.0000000000000001
    7        0.0660127036601252
    8        0.0000000000000002
    9        0.0000000000000012
   10        0.6324875217125278
   11        0.0380497713272735
   12        0.0534407291401400
Sym= A
 Ene=    9.6443496529000972E-002
Spin= Alpha
Occup=  0.0000
    1       -0.0000000000000000
    2       -0.0000000000000001
    3       -0.0000000000000003
    4        0.0000000000000018
    5        0.0010389462469750
    6        0.0436235077073556
    7        0.0000000000000000
    8        0.0231816825162905
    9        0.9738417297488637
   10       -0.0000000000000001
   11       -0.0000000000000003
   12       -0.0000000000000007
Sym= A
 Ene=    9.6443496529001180E-002
Spin= Alpha
Occup=  0.0000
    1       -0.0000000000000000
    2       -0.0000000000000000
    3       -0.0000000000000001
    4        0.0000000000000002
    5        0.0436235077073553
    6       -0.0010389462469750
    7       -0.0000000000000000
    8        0.9738417297488637
    9       -0.0231816825162905
   10       -0.0000000000000001
   11       -0.0000000000000000
   12       -0.0000000000000000
Sym= A
 Ene=   0.27558746879213569
Spin= Alpha
Occup=  0.0000
    1       -0.0067171565039849
    2        0.0034923116959442
    3       -0.2091001119436865
    4        0.9758935186270618
    5       -0.0000000000000000
    6       -0.0000000000000001
    7       -0.1916889638681110
    8       -0.0000000000000000
    9       -0.0000000000000007
   10        1.1449877343203163
   11       -0.0777312544084572
   12       -1.1099974236606158
Sym= A
 Ene=   0.49356578393957001
Spin= Alpha
Occup=  0.0000
    1        0.0000000000000000
    2        0.0000000000000000
    3        0.0000000000000000
    4       -0.0000000000000000
    5       -1.2253262601992794
    6        0.0000726361741064
    7        0.0000000000000000
    8        0.7445961537150432
    9       -0.0000437285262295
   10        0.0000000000000000
   11        0.0000000000000000
   12        0.0000000000000000
Sym= A
 Ene=   0.49356578393957046
Spin= Alpha
Occup=  0.0000
    1        0.0000000000000000
    2        0.0000000000000000
    3        0.0000000000000000
    4       -0.0000000000000001
    5       -0.0000726361741064
    6       -1.2253262601992796
    7       -0.0000000000000000
    8        0.0000437285262295
    9        0.7445961537150436
   10        0.0000000000000000
   11        0.0000000000000000
   12        0.0000000000000000
Sym= A
 Ene=   0.51436757540837930
Spin= Alpha
Occup=  0.0000
    1       -0.0450726059225212
    2       -0.2385531151273333
    3        0.5727402375166422
    4       -0.6660260717147126
    5        0.0000000000000000
    6        0.0000000000000000
    7       -1.2319296862405609
    8        0.0000000000000000
    9        0.0000000000000002
   10        0.3416650645890171
   11        0.0114883630269184
   12        0.6947412367746320
Sym= A
 Ene=   0.69614208613663520
Spin= Alpha
Occup=  0.0000
    1        0.1398278514238928
    2        0.7868101203464698
    3       -1.8241326139122589
    4        0.6976980914906561
    5        0.0000000000000000
    6        0.0000000000000000
    7       -0.4042652228619042
    8        0.0000000000000000
    9        0.0000000000000001
   10       -0.0191110462809271
   11       -0.0187067211224039
   12        0.5117925199670934
Sym= A
 Ene=    1.9265018127537081
Spin= Alpha
Occup=  0.0000
    1       -0.0293126968112118
    2       -0.0209427687236782
    3       -0.0151206276175800
    4       -0.3839877031887022
    5       -0.0000000000000000
    6       -0.0000000000000000
    7       -0.0516451393507473
    8       -0.0000000000000000
    9       -0.0000000000000002
   10       -0.3587751224980413
   11       -1.3173891876300305
   12        1.3700430750095118
Sym= A
 Ene=    6.3196953843833512
Spin= Alpha
Occup=  0.0000
    1       -1.2629790799296783
    2        1.5607758537317462
    3       -0.8785751549951428
    4        0.2824697954533095
    5       -0.0000000000000000
    6       -0.0000000000000000
    7       -0.0167873455884911
    8       -0.0000000000000000
    9       -0.0000000000000000
   10       -0.0104477643588179
   11        0.0457500193774675
   12        0.0177519458779222
