[Molden Format]
[GTO]
    1 0
 s   2 1.00
       6.1638450    1.0000000000
       1.0971610    0.0000000000
 s   2 1.00
       6.1638450    0.0000000000
       1.0971610    1.0000000000

    2 0
 s   1 1.00
       1.3097564    1.0000000000

*** Dalton interface to Molden, wave function type :
HF           3Jul22   17:09:56
[Atoms] AU
Li         1     3         0.0000000000         0.0000000000        -0.545857052
H          2     1         0.0000000000         0.0000000000         2.309057052
[5D7F]
[9G]
[MO]
Sym= A
 Ene=   -2.2966118891584331
Spin= Alpha
Occup=  2.0000
    1       -0.3908263268018323
    2       -0.7134992232529840
    3       -0.0045571323776402
Sym= A
 Ene=    1.0790529392815920
Spin= Alpha
Occup=  2.0000
    1        0.0176680317575665
    2       -0.0047230148364957
    3       -0.9998489388682839
Sym= A
 Ene=    5.2110858474077961
Spin= Alpha
Occup=  0.0000
    1        1.1950211456749558
    2       -1.0354333287068587
    3        0.0193031966180577
