[Molden Format]
[GTO]
    1 0
 s  12 1.00
     900.4600000    1.0000000000
     134.4330000    0.0000000000
      30.4365000    0.0000000000
       8.6263900    0.0000000000
       4.8689000    0.0000000000
       2.4833200    0.0000000000
       0.8569240    0.0000000000
       0.3031790    0.0000000000
       0.2432270    0.0000000000
       0.0635070    0.0000000000
       0.0243683    0.0000000000
       0.0074000    0.0000000000
 s  12 1.00
     900.4600000    0.0000000000
     134.4330000    1.0000000000
      30.4365000    0.0000000000
       8.6263900    0.0000000000
       4.8689000    0.0000000000
       2.4833200    0.0000000000
       0.8569240    0.0000000000
       0.3031790    0.0000000000
       0.2432270    0.0000000000
       0.0635070    0.0000000000
       0.0243683    0.0000000000
       0.0074000    0.0000000000
 s  12 1.00
     900.4600000    0.0000000000
     134.4330000    0.0000000000
      30.4365000    1.0000000000
       8.6263900    0.0000000000
       4.8689000    0.0000000000
       2.4833200    0.0000000000
       0.8569240    0.0000000000
       0.3031790    0.0000000000
       0.2432270    0.0000000000
       0.0635070    0.0000000000
       0.0243683    0.0000000000
       0.0074000    0.0000000000
 s  12 1.00
     900.4600000    0.0000000000
     134.4330000    0.0000000000
      30.4365000    0.0000000000
       8.6263900    1.0000000000
       4.8689000    0.0000000000
       2.4833200    0.0000000000
       0.8569240    0.0000000000
       0.3031790    0.0000000000
       0.2432270    0.0000000000
       0.0635070    0.0000000000
       0.0243683    0.0000000000
       0.0074000    0.0000000000
 s  12 1.00
     900.4600000    0.0000000000
     134.4330000    0.0000000000
      30.4365000    0.0000000000
       8.6263900    0.0000000000
       4.8689000    1.0000000000
       2.4833200    0.0000000000
       0.8569240    0.0000000000
       0.3031790    0.0000000000
       0.2432270    0.0000000000
       0.0635070    0.0000000000
       0.0243683    0.0000000000
       0.0074000    0.0000000000
 s  12 1.00
     900.4600000    0.0000000000
     134.4330000    0.0000000000
      30.4365000    0.0000000000
       8.6263900    0.0000000000
       4.8689000    0.0000000000
       2.4833200    1.0000000000
       0.8569240    0.0000000000
       0.3031790    0.0000000000
       0.2432270    0.0000000000
       0.0635070    0.0000000000
       0.0243683    0.0000000000
       0.0074000    0.0000000000
 s  12 1.00
     900.4600000    0.0000000000
     134.4330000    0.0000000000
      30.4365000    0.0000000000
       8.6263900    0.0000000000
       4.8689000    0.0000000000
       2.4833200    0.0000000000
       0.8569240    1.0000000000
       0.3031790    0.0000000000
       0.2432270    0.0000000000
       0.0635070    0.0000000000
       0.0243683    0.0000000000
       0.0074000    0.0000000000
 s  12 1.00
     900.4600000    0.0000000000
     134.4330000    0.0000000000
      30.4365000    0.0000000000
       8.6263900    0.0000000000
       4.8689000    0.0000000000
       2.4833200    0.0000000000
       0.8569240    0.0000000000
       0.3031790    1.0000000000
       0.2432270    0.0000000000
       0.0635070    0.0000000000
       0.0243683    0.0000000000
       0.0074000    0.0000000000
 s  12 1.00
     900.4600000    0.0000000000
     134.4330000    0.0000000000
      30.4365000    0.0000000000
       8.6263900    0.0000000000
       4.8689000    0.0000000000
       2.4833200    0.0000000000
       0.8569240    0.0000000000
       0.3031790    0.0000000000
       0.2432270    1.0000000000
       0.0635070    0.0000000000
       0.0243683    0.0000000000
       0.0074000    0.0000000000
 s  12 1.00
     900.4600000    0.0000000000
     134.4330000    0.0000000000
      30.4365000    0.0000000000
       8.6263900    0.0000000000
       4.8689000    0.0000000000
       2.4833200    0.0000000000
       0.8569240    0.0000000000
       0.3031790    0.0000000000
       0.2432270    0.0000000000
       0.0635070    1.0000000000
       0.0243683    0.0000000000
       0.0074000    0.0000000000
 s  12 1.00
     900.4600000    0.0000000000
     134.4330000    0.0000000000
      30.4365000    0.0000000000
       8.6263900    0.0000000000
       4.8689000    0.0000000000
       2.4833200    0.0000000000
       0.8569240    0.0000000000
       0.3031790    0.0000000000
       0.2432270    0.0000000000
       0.0635070    0.0000000000
       0.0243683    1.0000000000
       0.0074000    0.0000000000
 s  12 1.00
     900.4600000    0.0000000000
     134.4330000    0.0000000000
      30.4365000    0.0000000000
       8.6263900    0.0000000000
       4.8689000    0.0000000000
       2.4833200    0.0000000000
       0.8569240    0.0000000000
       0.3031790    0.0000000000
       0.2432270    0.0000000000
       0.0635070    0.0000000000
       0.0243683    0.0000000000
       0.0074000    1.0000000000
 p   6 1.00
       4.8689000    1.0000000000
       0.8569240    0.0000000000
       0.2432270    0.0000000000
       0.0635070    0.0000000000
       0.0243683    0.0000000000
       0.0074000    0.0000000000
 p   6 1.00
       4.8689000    0.0000000000
       0.8569240    1.0000000000
       0.2432270    0.0000000000
       0.0635070    0.0000000000
       0.0243683    0.0000000000
       0.0074000    0.0000000000
 p   6 1.00
       4.8689000    0.0000000000
       0.8569240    0.0000000000
       0.2432270    1.0000000000
       0.0635070    0.0000000000
       0.0243683    0.0000000000
       0.0074000    0.0000000000
 p   6 1.00
       4.8689000    0.0000000000
       0.8569240    0.0000000000
       0.2432270    0.0000000000
       0.0635070    1.0000000000
       0.0243683    0.0000000000
       0.0074000    0.0000000000
 p   6 1.00
       4.8689000    0.0000000000
       0.8569240    0.0000000000
       0.2432270    0.0000000000
       0.0635070    0.0000000000
       0.0243683    1.0000000000
       0.0074000    0.0000000000
 p   6 1.00
       4.8689000    0.0000000000
       0.8569240    0.0000000000
       0.2432270    0.0000000000
       0.0635070    0.0000000000
       0.0243683    0.0000000000
       0.0074000    1.0000000000
 d   1 1.00
       0.2000000    1.0000000000

    2 0
 s   6 1.00
      33.8650000    1.0000000000
       5.0947900    0.0000000000
       1.1587900    0.0000000000
       0.3258400    0.0000000000
       0.1027410    0.0000000000
       0.0360000    0.0000000000
 s   6 1.00
      33.8650000    0.0000000000
       5.0947900    1.0000000000
       1.1587900    0.0000000000
       0.3258400    0.0000000000
       0.1027410    0.0000000000
       0.0360000    0.0000000000
 s   6 1.00
      33.8650000    0.0000000000
       5.0947900    0.0000000000
       1.1587900    1.0000000000
       0.3258400    0.0000000000
       0.1027410    0.0000000000
       0.0360000    0.0000000000
 s   6 1.00
      33.8650000    0.0000000000
       5.0947900    0.0000000000
       1.1587900    0.0000000000
       0.3258400    1.0000000000
       0.1027410    0.0000000000
       0.0360000    0.0000000000
 s   6 1.00
      33.8650000    0.0000000000
       5.0947900    0.0000000000
       1.1587900    0.0000000000
       0.3258400    0.0000000000
       0.1027410    1.0000000000
       0.0360000    0.0000000000
 s   6 1.00
      33.8650000    0.0000000000
       5.0947900    0.0000000000
       1.1587900    0.0000000000
       0.3258400    0.0000000000
       0.1027410    0.0000000000
       0.0360000    1.0000000000
 p   1 1.00
       0.7500000    1.0000000000

*** Dalton interface to Molden, wave function type :
HF          18Aug22   19:46:46
[Atoms] AU
Li         1     3         0.0000000000         0.0000000000        -0.545857052
H          2     1         0.0000000000         0.0000000000         2.309057052
[5D7F]
[9G]
[MO]
Sym= A
 Ene=   -2.4382242850369060
Spin= Alpha
Occup=  2.0000
    1       -0.0014122860770145
    2       -0.0108462656042772
    3       -0.0540296527700670
    4       -0.1715363873927272
    5       -0.0439947269697925
    6       -0.4022368052618880
    7       -0.4078205290284150
    8       -0.0656482521060738
    9       -0.0070633680009249
   10        0.0035083949344041
   11       -0.0015461082048370
   12        0.0004394562923320
   13       -0.0000000000000000
   14        0.0000000000000000
   15        0.0010622588412521
   16       -0.0000000000000000
   17        0.0000000000000000
   18        0.0083086147945133
   19       -0.0000000000000000
   20        0.0000000000000000
   21        0.0019299063327625
   22       -0.0000000000000000
   23        0.0000000000000001
   24       -0.0003150185456257
   25       -0.0000000000000000
   26        0.0000000000000000
   27        0.0002974133056588
   28       -0.0000000000000000
   29        0.0000000000000000
   30       -0.0000647645641155
   31        0.0000411580035770
   32        0.0000000000000000
   33       -0.0000000000000000
   34        0.0000000000000000
   35        0.0000000000000000
   36       -0.0000684430686032
   37       -0.0003254862032282
   38       -0.0017298880824007
   39       -0.0026149794028244
   40       -0.0005609078746013
   41       -0.0002943347028557
   42       -0.0000000000000000
   43        0.0000000000000000
   44        0.0012621383428891
Sym= A
 Ene=  -0.30630778950082205
Spin= Alpha
Occup=  2.0000
    1        0.0001652925077826
    2        0.0012851580304191
    3        0.0063871206580023
    4        0.0219877747693650
    5        0.0035507871585338
    6        0.0593466179007592
    7        0.0832426567197184
    8        0.2030023839895208
    9       -0.2171355702209461
   10       -0.2112427825861521
   11       -0.0204105951723647
   12       -0.0008268050479904
   13        0.0000000000000000
   14        0.0000000000000000
   15       -0.0043677611764539
   16        0.0000000000000000
   17        0.0000000000000000
   18       -0.0241813326774430
   19        0.0000000000000000
   20        0.0000000000000000
   21       -0.1059035404854057
   22        0.0000000000000000
   23        0.0000000000000000
   24       -0.1068631433005469
   25        0.0000000000000000
   26        0.0000000000000000
   27        0.0124682281841468
   28        0.0000000000000000
   29        0.0000000000000000
   30       -0.0048525081660050
   31       -0.0220351864529473
   32       -0.0000000000000000
   33       -0.0000000000000000
   34       -0.0000000000000000
   35        0.0000000000000000
   36       -0.0047050605884124
   37       -0.0346030043249407
   38       -0.1390973444462996
   39       -0.3186086966806431
   40       -0.2972337082626625
   41       -0.0616238763137123
   42        0.0000000000000000
   43        0.0000000000000000
   44        0.0109889141090691
Sym= A
 Ene=   -6.3406252156243481E-003
Spin= Alpha
Occup=  0.0000
    1        0.0000560831526584
    2        0.0004314530873819
    3        0.0021809600866570
    4        0.0071338797818654
    5        0.0019682008282475
    6        0.0187749255633869
    7        0.0292403284768405
    8        0.0409103800935913
    9       -0.0229744076660054
   10       -0.0504507481988779
   11        0.2202267276845069
   12       -0.7024545288959045
   13        0.0000000000000000
   14        0.0000000000000000
   15        0.0018322593440358
   16        0.0000000000000000
   17        0.0000000000000000
   18        0.0097248085860432
   19        0.0000000000000000
   20        0.0000000000000002
   21        0.0380292462837186
   22        0.0000000000000001
   23        0.0000000000000005
   24        0.1721294122344553
   25        0.0000000000000001
   26        0.0000000000000004
   27        0.3804275993001743
   28        0.0000000000000000
   29        0.0000000000000000
   30        0.3171761529473791
   31       -0.0063953820073045
   32       -0.0000000000000000
   33       -0.0000000000000000
   34        0.0000000000000000
   35        0.0000000000000000
   36        0.0006300058120486
   37        0.0044821585163723
   38        0.0192329724938412
   39        0.0418919481865945
   40        0.0571072074001628
   41       -0.3731583930884752
   42        0.0000000000000000
   43        0.0000000000000000
   44       -0.0012897186771833
Sym= A
 Ene=    1.5318291524269003E-002
Spin= Alpha
Occup=  0.0000
    1       -0.0000000000000000
    2       -0.0000000000000000
    3       -0.0000000000000000
    4       -0.0000000000000000
    5        0.0000000000000000
    6       -0.0000000000000000
    7       -0.0000000000000000
    8       -0.0000000000000000
    9        0.0000000000000000
   10        0.0000000000000001
   11        0.0000000000000000
   12       -0.0000000000000000
   13        0.0004547554372558
   14       -0.0000021603715364
   15       -0.0000000000000000
   16        0.0050706769208133
   17       -0.0000241839019354
   18       -0.0000000000000000
   19        0.0019700603395198
   20       -0.0000092020859771
   21       -0.0000000000000000
   22        0.1167615209780825
   23       -0.0005563323978671
   24       -0.0000000000000000
   25       -0.2214015876989321
   26        0.0010584455743085
   27       -0.0000000000000000
   28        1.1054444749286565
   29       -0.0052672882149542
   30       -0.0000000000000000
   31        0.0000000000000000
   32       -0.0060383162140327
   33        0.0000285283786629
   34       -0.0000000000000000
   35        0.0000000000000000
   36       -0.0000000000000000
   37       -0.0000000000000000
   38       -0.0000000000000000
   39       -0.0000000000000000
   40       -0.0000000000000000
   41       -0.0000000000000000
   42        0.0016361372575945
   43       -0.0000077941860946
   44       -0.0000000000000000
Sym= A
 Ene=    1.5318291524286470E-002
Spin= Alpha
Occup=  0.0000
    1       -0.0000000000000000
    2       -0.0000000000000000
    3       -0.0000000000000000
    4       -0.0000000000000000
    5        0.0000000000000000
    6       -0.0000000000000000
    7       -0.0000000000000000
    8       -0.0000000000000002
    9        0.0000000000000002
   10        0.0000000000000005
   11        0.0000000000000003
   12       -0.0000000000000000
   13        0.0000021737855737
   14        0.0004547554353331
   15       -0.0000000000000000
   16        0.0000241714915123
   17        0.0050706769194567
   18        0.0000000000000000
   19        0.0000092710370305
   20        0.0019700602787621
   21       -0.0000000000000000
   22        0.0005562682765175
   23        0.1167615210496619
   24       -0.0000000000000000
   25       -0.0010583743767063
   26       -0.2214015882369626
   27       -0.0000000000000000
   28        0.0052672577098842
   29        1.1054444752364712
   30       -0.0000000000000000
   31       -0.0000000000000000
   32       -0.0000284551058571
   33       -0.0060383162025732
   34       -0.0000000000000000
   35        0.0000000000000000
   36       -0.0000000000000000
   37       -0.0000000000000000
   38       -0.0000000000000001
   39       -0.0000000000000002
   40       -0.0000000000000001
   41       -0.0000000000000000
   42        0.0000077897118900
   43        0.0016361372553614
   44       -0.0000000000000000
Sym= A
 Ene=    2.3847504635182069E-002
Spin= Alpha
Occup=  0.0000
    1       -0.0000487096054127
    2       -0.0004067653940591
    3       -0.0017849211284061
    4       -0.0084057068260968
    5        0.0039323846512016
    6       -0.0255841499585100
    7       -0.0056431220932161
    8       -0.2494618378911836
    9        0.2695589325768372
   10       -0.1760487861590531
   11        0.7558008210827289
   12       -0.3788260365251960
   13       -0.0000000000000000
   14       -0.0000000000000000
   15       -0.0020296729932247
   16       -0.0000000000000000
   17       -0.0000000000000000
   18       -0.0054855672513290
   19       -0.0000000000000000
   20       -0.0000000000000001
   21       -0.0585652555140685
   22       -0.0000000000000001
   23       -0.0000000000000003
   24       -0.0166876942891760
   25       -0.0000000000000000
   26       -0.0000000000000002
   27       -0.7580552124132606
   28       -0.0000000000000000
   29       -0.0000000000000000
   30        1.1688215515541331
   31        0.0089500420164705
   32        0.0000000000000000
   33        0.0000000000000000
   34        0.0000000000000000
   35        0.0000000000000000
   36       -0.0005900717245108
   37       -0.0046381275512197
   38       -0.0171263070299265
   39       -0.0515212835110699
   40       -0.0443538165934306
   41        0.0760997924233563
   42       -0.0000000000000000
   43       -0.0000000000000000
   44        0.0010564970493513
Sym= A
 Ene=    2.7495931170971877E-002
Spin= Alpha
Occup=  0.0000
    1        0.0000535848879208
    2        0.0004859242718261
    3        0.0018330341183367
    4        0.0119083619802240
    5       -0.0111132490465673
    6        0.0394083066555910
    7       -0.0174034839010023
    8        0.5342613090017194
    9       -0.6080048068581962
   10        0.4825278931865307
   11       -1.4327698298009368
   12        1.4974391370174220
   13        0.0000000000000000
   14        0.0000000000000000
   15        0.0009852767931613
   16        0.0000000000000000
   17        0.0000000000000000
   18        0.0063424667784440
   19        0.0000000000000000
   20        0.0000000000000001
   21        0.0159916813808846
   22        0.0000000000000001
   23        0.0000000000000002
   24        0.2055804179237715
   25        0.0000000000000000
   26        0.0000000000000001
   27        0.1034924247684835
   28        0.0000000000000000
   29        0.0000000000000000
   30        0.3676044560086461
   31       -0.0037951930244356
   32       -0.0000000000000000
   33       -0.0000000000000000
   34        0.0000000000000000
   35        0.0000000000000000
   36        0.0001042878885875
   37        0.0005387230259457
   38        0.0038374058848672
   39        0.0076460490446658
   40       -0.0542883307316224
   41       -0.1322955376636374
   42        0.0000000000000000
   43        0.0000000000000000
   44       -0.0005208037476107
Sym= A
 Ene=    5.7939304924683695E-002
Spin= Alpha
Occup=  0.0000
    1        0.0000000000000000
    2        0.0000000000000000
    3        0.0000000000000000
    4        0.0000000000000000
    5       -0.0000000000000000
    6        0.0000000000000000
    7        0.0000000000000001
    8        0.0000000000000004
    9       -0.0000000000000004
   10       -0.0000000000000008
   11       -0.0000000000000005
   12        0.0000000000000000
   13       -0.0000445501477094
   14       -0.0030167199409088
   15        0.0000000000000000
   16       -0.0000642334350264
   17       -0.0043508318964507
   18       -0.0000000000000000
   19       -0.0014339269196038
   20       -0.0970846410183483
   21        0.0000000000000000
   22        0.0017610948485490
   23        0.1192160279282678
   24        0.0000000000000000
   25       -0.0206835281887279
   26       -1.4007036298078361
   27        0.0000000000000000
   28        0.0120235978243819
   29        0.8140616085846616
   30        0.0000000000000000
   31        0.0000000000000000
   32        0.0003440041180463
   33        0.0233089009746686
   34        0.0000000000000000
   35        0.0000000000000000
   36        0.0000000000000000
   37        0.0000000000000000
   38        0.0000000000000002
   39        0.0000000000000004
   40        0.0000000000000002
   41        0.0000000000000000
   42       -0.0001051678945529
   43       -0.0071198831389183
   44        0.0000000000000000
Sym= A
 Ene=    5.7939304924688649E-002
Spin= Alpha
Occup=  0.0000
    1        0.0000000000000000
    2        0.0000000000000000
    3        0.0000000000000000
    4        0.0000000000000000
    5       -0.0000000000000000
    6        0.0000000000000000
    7        0.0000000000000000
    8        0.0000000000000001
    9       -0.0000000000000001
   10       -0.0000000000000001
   11       -0.0000000000000001
   12        0.0000000000000000
   13       -0.0030167199409319
   14        0.0000445505018899
   15        0.0000000000000000
   16       -0.0043508319019489
   17        0.0000642333723806
   18        0.0000000000000000
   19       -0.0970846410131996
   20        0.0014339186222682
   21        0.0000000000000000
   22        0.1192160279373872
   23       -0.0017610833073948
   24        0.0000000000000001
   25       -1.4007036298307942
   26        0.0206835174281357
   27        0.0000000000000000
   28        0.8140616087165896
   29       -0.0120235685198493
   30        0.0000000000000000
   31       -0.0000000000000000
   32        0.0233089009734152
   33       -0.0003440041374484
   34        0.0000000000000000
   35        0.0000000000000000
   36        0.0000000000000000
   37        0.0000000000000000
   38        0.0000000000000000
   39        0.0000000000000000
   40        0.0000000000000000
   41        0.0000000000000000
   42       -0.0071198831395916
   43        0.0001051711099991
   44        0.0000000000000000
Sym= A
 Ene=    7.8399645863357320E-002
Spin= Alpha
Occup=  0.0000
    1       -0.0000115144388438
    2       -0.0000978131205171
    3       -0.0004156461699652
    4       -0.0020841442469590
    5        0.0011669134620405
    6       -0.0062484877760718
    7       -0.0014691830692094
    8       -0.0426866303597391
    9        0.0359254998937305
   10       -0.1251195297806454
   11        4.9221270924726888
   12       -0.6366226083853991
   13       -0.0000000000000000
   14       -0.0000000000000000
   15       -0.0011914763260224
   16       -0.0000000000000000
   17       -0.0000000000000000
   18       -0.0063325091720886
   19       -0.0000000000000000
   20       -0.0000000000000001
   21       -0.0327503827924671
   22       -0.0000000000000000
   23       -0.0000000000000003
   24       -0.4029065752247691
   25       -0.0000000000000000
   26       -0.0000000000000002
   27        3.2744519805086139
   28       -0.0000000000000000
   29       -0.0000000000000000
   30       -0.7245953959444972
   31       -0.0415776536737416
   32        0.0000000000000000
   33        0.0000000000000000
   34        0.0000000000000000
   35        0.0000000000000000
   36       -0.0007861404266525
   37       -0.0093244828795988
   38       -0.0136121583106272
   39       -0.1506499669058002
   40        0.6138768649802721
   41       -5.0136472996540569
   42       -0.0000000000000000
   43       -0.0000000000000000
   44       -0.0046358146762979
Sym= A
 Ene=   0.13164023174427025
Spin= Alpha
Occup=  0.0000
    1        0.0001601946387556
    2        0.0009923020159093
    3        0.0070629713114911
    4        0.0038531503448431
    5        0.0483445421412840
    6       -0.0158567653671542
    7        0.2447989808217066
    8       -1.5785644663054130
    9        1.9646218668549875
   10       -2.3997900681632465
   11        3.3159598902208849
   12       -0.8647115743981186
   13        0.0000000000000000
   14        0.0000000000000000
   15        0.0027818987827879
   16        0.0000000000000000
   17        0.0000000000000000
   18        0.0274147050683546
   19        0.0000000000000000
   20        0.0000000000000001
   21        0.0229142908368397
   22        0.0000000000000000
   23        0.0000000000000002
   24        1.0572940846281369
   25        0.0000000000000000
   26        0.0000000000000001
   27       -0.6415359118890100
   28        0.0000000000000000
   29        0.0000000000000000
   30        0.3080057380435621
   31       -0.0215890761541002
   32       -0.0000000000000000
   33       -0.0000000000000000
   34       -0.0000000000000000
   35        0.0000000000000000
   36        0.0003519580401836
   37        0.0026241825637588
   38        0.0090130941124552
   39        0.0229998198020383
   40        0.0126946417136111
   41       -1.0393202342741918
   42        0.0000000000000000
   43        0.0000000000000000
   44        0.0004746450525800
Sym= A
 Ene=   0.16607380879329883
Spin= Alpha
Occup=  0.0000
    1       -0.0000843407489924
    2       -0.0004762860080748
    3       -0.0038814685542240
    4        0.0011642128477863
    5       -0.0338704664954734
    6        0.0221585377175993
    7       -0.1651794397367646
    8        1.1997410591106545
    9       -1.4694546747576123
   10        1.8396579758215492
   11        2.5951671932205906
   12        0.2144678682753309
   13       -0.0000000000000000
   14        0.0000000000000000
   15        0.0005619323203802
   16       -0.0000000000000000
   17        0.0000000000000000
   18        0.0296231810455388
   19       -0.0000000000000000
   20        0.0000000000000000
   21       -0.0537511530189618
   22       -0.0000000000000000
   23        0.0000000000000000
   24        0.7386490446944856
   25       -0.0000000000000000
   26        0.0000000000000000
   27        1.1808708545033313
   28       -0.0000000000000000
   29        0.0000000000000000
   30        0.1431274760050397
   31       -0.0082331653481109
   32        0.0000000000000000
   33       -0.0000000000000000
   34       -0.0000000000000000
   35        0.0000000000000000
   36        0.0012279620954615
   37        0.0021185391994942
   38        0.0580202697733050
   39       -0.0914663732040086
   40        0.7692286581323595
   41       -5.4690223492319916
   42       -0.0000000000000000
   43        0.0000000000000000
   44       -0.0218097579170168
Sym= A
 Ene=   0.16741862055542217
Spin= Alpha
Occup=  0.0000
    1        0.0000000000000000
    2        0.0000000000000000
    3        0.0000000000000000
    4        0.0000000000000000
    5       -0.0000000000000000
    6        0.0000000000000000
    7        0.0000000000000000
    8        0.0000000000000000
    9       -0.0000000000000000
   10       -0.0000000000000001
   11       -0.0000000000000000
   12        0.0000000000000000
   13       -0.0043902123991946
   14        0.0000180092976942
   15        0.0000000000000000
   16       -0.0533791467563994
   17        0.0002188140675674
   18        0.0000000000000000
   19       -0.0139348087146069
   20        0.0000571559033307
   21        0.0000000000000000
   22       -1.6445738694501439
   23        0.0067419253633695
   24        0.0000000000000000
   25        1.6376432349621433
   26       -0.0067135248355030
   27        0.0000000000000000
   28       -0.5219882030162637
   29        0.0021398948663493
   30        0.0000000000000000
   31       -0.0000000000000000
   32        0.0554555944981765
   33       -0.0002273365669606
   34        0.0000000000000000
   35        0.0000000000000000
   36        0.0000000000000000
   37        0.0000000000000000
   38        0.0000000000000000
   39        0.0000000000000000
   40        0.0000000000000000
   41        0.0000000000000000
   42       -0.0085043532059888
   43        0.0000348683739568
   44        0.0000000000000000
Sym= A
 Ene=   0.16741862055547493
Spin= Alpha
Occup=  0.0000
    1        0.0000000000000000
    2        0.0000000000000000
    3        0.0000000000000000
    4        0.0000000000000000
    5       -0.0000000000000000
    6        0.0000000000000000
    7        0.0000000000000000
    8        0.0000000000000002
    9       -0.0000000000000002
   10       -0.0000000000000005
   11       -0.0000000000000003
   12        0.0000000000000000
   13       -0.0000180053449509
   14       -0.0043902123997585
   15        0.0000000000000000
   16       -0.0002188527642606
   17       -0.0533791467567468
   18       -0.0000000000000000
   19       -0.0000574981857342
   20       -0.0139348087018452
   21        0.0000000000000000
   22       -0.0067415353257206
   23       -1.6445738694650174
   24        0.0000000000000000
   25        0.0067132885735060
   26        1.6376432349691503
   27        0.0000000000000000
   28       -0.0021398290611448
   29       -0.5219882030176192
   30        0.0000000000000000
   31        0.0000000000000000
   32        0.0002274817650888
   33        0.0554555944893783
   34        0.0000000000000000
   35        0.0000000000000000
   36        0.0000000000000000
   37        0.0000000000000000
   38        0.0000000000000001
   39        0.0000000000000002
   40        0.0000000000000001
   41        0.0000000000000000
   42       -0.0000347851016422
   43       -0.0085043532042186
   44        0.0000000000000000
Sym= A
 Ene=   0.26298863883249518
Spin= Alpha
Occup=  0.0000
    1       -0.0000622079736178
    2       -0.0003342670903934
    3       -0.0029205503548018
    4        0.0020133654635951
    5       -0.0278298344367795
    6        0.0207439174008836
    7       -0.1303271499018266
    8        1.0974637799995006
    9       -1.3603529682806883
   10        2.5405674781141352
   11       -3.6591595145727243
   12        0.3245837520980340
   13       -0.0000000000000000
   14       -0.0000000000000000
   15       -0.0011157388254999
   16       -0.0000000000000000
   17       -0.0000000000000000
   18        0.0200884497042752
   19       -0.0000000000000000
   20       -0.0000000000000001
   21       -0.1018159500409109
   22       -0.0000000000000000
   23       -0.0000000000000003
   24        2.3365642790865842
   25       -0.0000000000000000
   26       -0.0000000000000002
   27       -2.3266891409175416
   28       -0.0000000000000000
   29       -0.0000000000000000
   30        0.3312056843067906
   31       -0.0472310554679918
   32        0.0000000000000000
   33        0.0000000000000000
   34        0.0000000000000000
   35        0.0000000000000000
   36       -0.0027336462547274
   37       -0.0087801067006739
   38       -0.1215606779202545
   39        0.1972976347509530
   40       -3.3383825735049610
   41        4.1136079545827533
   42       -0.0000000000000000
   43       -0.0000000000000000
   44       -0.0033966601983621
Sym= A
 Ene=   0.51529370977222944
Spin= Alpha
Occup=  0.0000