[Molden Format]
[GTO]
    1 0
 s  12 1.00
    8588.5000000    1.0000000000
    1297.2300000    0.0000000000
     299.2960000    0.0000000000
      87.3771000    0.0000000000
      42.1175000    0.0000000000
      25.6789000    0.0000000000
       9.6283700    0.0000000000
       3.7400400    0.0000000000
       2.8533200    0.0000000000
       0.9056610    0.0000000000
       0.2556110    0.0000000000
       0.0845000    0.0000000000
 s  12 1.00
    8588.5000000    0.0000000000
    1297.2300000    1.0000000000
     299.2960000    0.0000000000
      87.3771000    0.0000000000
      42.1175000    0.0000000000
      25.6789000    0.0000000000
       9.6283700    0.0000000000
       3.7400400    0.0000000000
       2.8533200    0.0000000000
       0.9056610    0.0000000000
       0.2556110    0.0000000000
       0.0845000    0.0000000000
 s  12 1.00
    8588.5000000    0.0000000000
    1297.2300000    0.0000000000
     299.2960000    1.0000000000
      87.3771000    0.0000000000
      42.1175000    0.0000000000
      25.6789000    0.0000000000
       9.6283700    0.0000000000
       3.7400400    0.0000000000
       2.8533200    0.0000000000
       0.9056610    0.0000000000
       0.2556110    0.0000000000
       0.0845000    0.0000000000
 s  12 1.00
    8588.5000000    0.0000000000
    1297.2300000    0.0000000000
     299.2960000    0.0000000000
      87.3771000    1.0000000000
      42.1175000    0.0000000000
      25.6789000    0.0000000000
       9.6283700    0.0000000000
       3.7400400    0.0000000000
       2.8533200    0.0000000000
       0.9056610    0.0000000000
       0.2556110    0.0000000000
       0.0845000    0.0000000000
 s  12 1.00
    8588.5000000    0.0000000000
    1297.2300000    0.0000000000
     299.2960000    0.0000000000
      87.3771000    0.0000000000
      42.1175000    1.0000000000
      25.6789000    0.0000000000
       9.6283700    0.0000000000
       3.7400400    0.0000000000
       2.8533200    0.0000000000
       0.9056610    0.0000000000
       0.2556110    0.0000000000
       0.0845000    0.0000000000
 s  12 1.00
    8588.5000000    0.0000000000
    1297.2300000    0.0000000000
     299.2960000    0.0000000000
      87.3771000    0.0000000000
      42.1175000    0.0000000000
      25.6789000    1.0000000000
       9.6283700    0.0000000000
       3.7400400    0.0000000000
       2.8533200    0.0000000000
       0.9056610    0.0000000000
       0.2556110    0.0000000000
       0.0845000    0.0000000000
 s  12 1.00
    8588.5000000    0.0000000000
    1297.2300000    0.0000000000
     299.2960000    0.0000000000
      87.3771000    0.0000000000
      42.1175000    0.0000000000
      25.6789000    0.0000000000
       9.6283700    1.0000000000
       3.7400400    0.0000000000
       2.8533200    0.0000000000
       0.9056610    0.0000000000
       0.2556110    0.0000000000
       0.0845000    0.0000000000
 s  12 1.00
    8588.5000000    0.0000000000
    1297.2300000    0.0000000000
     299.2960000    0.0000000000
      87.3771000    0.0000000000
      42.1175000    0.0000000000
      25.6789000    0.0000000000
       9.6283700    0.0000000000
       3.7400400    1.0000000000
       2.8533200    0.0000000000
       0.9056610    0.0000000000
       0.2556110    0.0000000000
       0.0845000    0.0000000000
 s  12 1.00
    8588.5000000    0.0000000000
    1297.2300000    0.0000000000
     299.2960000    0.0000000000
      87.3771000    0.0000000000
      42.1175000    0.0000000000
      25.6789000    0.0000000000
       9.6283700    0.0000000000
       3.7400400    0.0000000000
       2.8533200    1.0000000000
       0.9056610    0.0000000000
       0.2556110    0.0000000000
       0.0845000    0.0000000000
 s  12 1.00
    8588.5000000    0.0000000000
    1297.2300000    0.0000000000
     299.2960000    0.0000000000
      87.3771000    0.0000000000
      42.1175000    0.0000000000
      25.6789000    0.0000000000
       9.6283700    0.0000000000
       3.7400400    0.0000000000
       2.8533200    0.0000000000
       0.9056610    1.0000000000
       0.2556110    0.0000000000
       0.0845000    0.0000000000
 s  12 1.00
    8588.5000000    0.0000000000
    1297.2300000    0.0000000000
     299.2960000    0.0000000000
      87.3771000    0.0000000000
      42.1175000    0.0000000000
      25.6789000    0.0000000000
       9.6283700    0.0000000000
       3.7400400    0.0000000000
       2.8533200    0.0000000000
       0.9056610    0.0000000000
       0.2556110    1.0000000000
       0.0845000    0.0000000000
 s  12 1.00
    8588.5000000    0.0000000000
    1297.2300000    0.0000000000
     299.2960000    0.0000000000
      87.3771000    0.0000000000
      42.1175000    0.0000000000
      25.6789000    0.0000000000
       9.6283700    0.0000000000
       3.7400400    0.0000000000
       2.8533200    0.0000000000
       0.9056610    0.0000000000
       0.2556110    0.0000000000
       0.0845000    1.0000000000
 p   6 1.00
      42.1175000    1.0000000000
       9.6283700    0.0000000000
       2.8533200    0.0000000000
       0.9056610    0.0000000000
       0.2556110    0.0000000000
       0.0845000    0.0000000000
 p   6 1.00
      42.1175000    0.0000000000
       9.6283700    1.0000000000
       2.8533200    0.0000000000
       0.9056610    0.0000000000
       0.2556110    0.0000000000
       0.0845000    0.0000000000
 p   6 1.00
      42.1175000    0.0000000000
       9.6283700    0.0000000000
       2.8533200    1.0000000000
       0.9056610    0.0000000000
       0.2556110    0.0000000000
       0.0845000    0.0000000000
 p   6 1.00
      42.1175000    0.0000000000
       9.6283700    0.0000000000
       2.8533200    0.0000000000
       0.9056610    1.0000000000
       0.2556110    0.0000000000
       0.0845000    0.0000000000
 p   6 1.00
      42.1175000    0.0000000000
       9.6283700    0.0000000000
       2.8533200    0.0000000000
       0.9056610    0.0000000000
       0.2556110    1.0000000000
       0.0845000    0.0000000000
 p   6 1.00
      42.1175000    0.0000000000
       9.6283700    0.0000000000
       2.8533200    0.0000000000
       0.9056610    0.0000000000
       0.2556110    0.0000000000
       0.0845000    1.0000000000
 d   1 1.00
       1.2920000    1.0000000000

    2 0
 s   6 1.00
      33.8650000    1.0000000000
       5.0947900    0.0000000000
       1.1587900    0.0000000000
       0.3258400    0.0000000000
       0.1027410    0.0000000000
       0.0360000    0.0000000000
 s   6 1.00
      33.8650000    0.0000000000
       5.0947900    1.0000000000
       1.1587900    0.0000000000
       0.3258400    0.0000000000
       0.1027410    0.0000000000
       0.0360000    0.0000000000
 s   6 1.00
      33.8650000    0.0000000000
       5.0947900    0.0000000000
       1.1587900    1.0000000000
       0.3258400    0.0000000000
       0.1027410    0.0000000000
       0.0360000    0.0000000000
 s   6 1.00
      33.8650000    0.0000000000
       5.0947900    0.0000000000
       1.1587900    0.0000000000
       0.3258400    1.0000000000
       0.1027410    0.0000000000
       0.0360000    0.0000000000
 s   6 1.00
      33.8650000    0.0000000000
       5.0947900    0.0000000000
       1.1587900    0.0000000000
       0.3258400    0.0000000000
       0.1027410    1.0000000000
       0.0360000    0.0000000000
 s   6 1.00
      33.8650000    0.0000000000
       5.0947900    0.0000000000
       1.1587900    0.0000000000
       0.3258400    0.0000000000
       0.1027410    0.0000000000
       0.0360000    1.0000000000
 p   1 1.00
       0.7500000    1.0000000000

    3 0
 s   6 1.00
      33.8650000    1.0000000000
       5.0947900    0.0000000000
       1.1587900    0.0000000000
       0.3258400    0.0000000000
       0.1027410    0.0000000000
       0.0360000    0.0000000000
 s   6 1.00
      33.8650000    0.0000000000
       5.0947900    1.0000000000
       1.1587900    0.0000000000
       0.3258400    0.0000000000
       0.1027410    0.0000000000
       0.0360000    0.0000000000
 s   6 1.00
      33.8650000    0.0000000000
       5.0947900    0.0000000000
       1.1587900    1.0000000000
       0.3258400    0.0000000000
       0.1027410    0.0000000000
       0.0360000    0.0000000000
 s   6 1.00
      33.8650000    0.0000000000
       5.0947900    0.0000000000
       1.1587900    0.0000000000
       0.3258400    1.0000000000
       0.1027410    0.0000000000
       0.0360000    0.0000000000
 s   6 1.00
      33.8650000    0.0000000000
       5.0947900    0.0000000000
       1.1587900    0.0000000000
       0.3258400    0.0000000000
       0.1027410    1.0000000000
       0.0360000    0.0000000000
 s   6 1.00
      33.8650000    0.0000000000
       5.0947900    0.0000000000
       1.1587900    0.0000000000
       0.3258400    0.0000000000
       0.1027410    0.0000000000
       0.0360000    1.0000000000
 p   1 1.00
       0.7500000    1.0000000000

*** Dalton interface to Molden, wave function type :
HF          10Jun22   19:29:40
[Atoms] AU
O          1     8         0.0436747098         0.0564168392         0.000000000
H          2     1         1.8266445527        -0.0584535291         0.000000000
H          3     1        -0.5142530046         1.7537362928         0.000000000
[5D7F]
[9G]
[MO]
Sym= A
 Ene=   -20.560620782173782
Spin= Alpha
Occup=  2.0000
    1       -0.0010444942010958
    2       -0.0079312398233331
    3       -0.0390026246117431
    4       -0.1319626201423317
    5       -0.0555589510077031
    6       -0.3256656239657957
    7       -0.4359420339472521
    8       -0.1497640646665060
    9       -0.0038034076181499
   10       -0.0040815751704468
   11       -0.0001038174752247
   12       -0.0001187829358358
   13       -0.0000785298460976
   14       -0.0001014409873992
   15        0.0000000000000000
   16       -0.0006138179224387
   17       -0.0007928997607401
   18        0.0000000000000000
   19       -0.0003492809094689
   20       -0.0004511838744307
   21        0.0000000000000000
   22        0.0000552641611922
   23        0.0000713875205139
   24        0.0000000000000000
   25        0.0000121487727228
   26        0.0000156931861674
   27        0.0000000000000000
   28       -0.0000120947815260
   29       -0.0000156234431836
   30        0.0000000000000000
   31       -0.0001038315516104
   32       -0.0000000000000000
   33       -0.0000000000000000
   34        0.0000133034662481
   35       -0.0000514036734054
   36       -0.0000047374446361
   37       -0.0000043185625531
   38       -0.0002035897415472
   39       -0.0000420693480087
   40        0.0000029304903962
   41        0.0000161196995063
   42        0.0000978930409034
   43       -0.0000257792476641
   44        0.0000000000000000
   45       -0.0000047374445882
   46       -0.0000043185626572
   47       -0.0002035897412864
   48       -0.0000420693477030
   49        0.0000029304901702
   50        0.0000161196997166
   51       -0.0000494839914501
   52        0.0000883116734555
   53        0.0000000000000000
Sym= A
 Ene=   -1.3562384689244358
Spin= Alpha
Occup=  2.0000
    1        0.0002140655954608
    2        0.0016193660524351
    3        0.0081827117169253
    4        0.0281003855256503
    5        0.0157467351247252
    6        0.0771765869536703
    7        0.1616129322790623
    8        0.0813563359609101
    9       -0.0462237041341682
   10       -0.5331919311734081
   11       -0.3855577632648036
   12        0.0158540468486995
   13       -0.0008414989697425
   14       -0.0010870069227131
   15        0.0000000000000000
   16       -0.0050891334550567
   17       -0.0065738919438233
   18        0.0000000000000000
   19       -0.0175172624423491
   20       -0.0226279368352095
   21        0.0000000000000000
   22       -0.0361911163769285
   23       -0.0467499016541529
   24        0.0000000000000000
   25       -0.0113661029537269
   26       -0.0146821719893229
   27        0.0000000000000000
   28       -0.0002656835172736
   29       -0.0003431968848592
   30        0.0000000000000000
   31        0.0081080262979484
   32       -0.0000000000000000
   33       -0.0000000000000000
   34       -0.0008149099149009
   35        0.0031487556895428
   36       -0.0026258806266173
   37       -0.0174677019433986
   38       -0.0811600524280234
   39       -0.0805395149978292
   40        0.0051103316935815
   41       -0.0078996652406295
   42        0.0275151940193428
   43       -0.0047415114107932
   44        0.0000000000000000
   45       -0.0026258806230417
   46       -0.0174677019809775
   47       -0.0811600523811002
   48       -0.0805395150326029
   49        0.0051103317177939
   50       -0.0078996652538188
   51       -0.0114841793672793
   52        0.0254495865712518
   53        0.0000000000000000
Sym= A
 Ene=  -0.74108155483861493
Spin= Alpha
Occup=  2.0000
    1        0.0000000000000029
    2        0.0000000000000218
    3        0.0000000000001094
    4        0.0000000000004399
    5        0.0000000000001395
    6        0.0000000000014555
    7        0.0000000000033882
    8        0.0000000000023130
    9       -0.0000000000065016
   10       -0.0000000000167434
   11        0.0000000000336606
   12        0.0000000000332113
   13       -0.0067641055473359
   14        0.0052363860127166
   15        0.0000000000000000
   16       -0.0437189017340516
   17        0.0338446885436092
   18        0.0000000000000000
   19       -0.1457109502863544
   20        0.1128011348469916
   21        0.0000000000000002
   22       -0.2785685707575750
   23        0.2156519524175233
   24        0.0000000000000003
   25       -0.1598503487883900
   26        0.1237470534620998
   27        0.0000000000000002
   28       -0.0104259768688786
   29        0.0080711986446299
   30        0.0000000000000001
   31       -0.0000000000160621
   32       -0.0000000000000000
   33       -0.0000000000000000
   34       -0.0268384426418208
   35       -0.0069458908418834
   36       -0.0040282746430010
   37       -0.0277325789920322
   38       -0.1309682365210182
   39       -0.2118003097364731
   40       -0.0273708528262373
   41       -0.0104992311270707
   42        0.0314813400019882
   43        0.0059558071482442
   44        0.0000000000000000
   45        0.0040282746456086
   46        0.0277325789685840
   47        0.1309682365338231
   48        0.2118003096672961
   49        0.0273708528139797
   50        0.0104992311230354
   51        0.0021217770580987
   52       -0.0319694302345892
   53        0.0000000000000000
Sym= A
 Ene=  -0.57201501638606245
Spin= Alpha
Occup=  2.0000
    1       -0.0000665835214871
    2       -0.0005044316614348
    3       -0.0025454471011789
    4       -0.0088074655942516
    5       -0.0047598543128205
    6       -0.0245829282852127
    7       -0.0510099227946879
    8       -0.0338826605865907
    9        0.0265259291778075
   10        0.1788466655204346
   11        0.2892296725829067
   12        0.0047270720083147
   13       -0.0058521517862412
   14       -0.0075595214443065
   15       -0.0000000000000000
   16       -0.0382333545333780
   17       -0.0493879642992226
   18       -0.0000000000000003
   19       -0.1273992685159482
   20       -0.1645681003276764
   21       -0.0000000000000008
   22       -0.2423247931650181
   23       -0.3130232327597883
   24       -0.0000000000000017
   25       -0.1945423291157367
   26       -0.2513001991008054
   27       -0.0000000000000012
   28       -0.0399841800100041
   29       -0.0516495944195181
   30       -0.0000000000000003
   31        0.0125979485207212
   32        0.0000000000000000
   33        0.0000000000000000
   34        0.0026920504270880
   35       -0.0104018969390386
   36       -0.0022179689309901
   37       -0.0148784502863901
   38       -0.0733740160069482
   39       -0.1316314785155407
   40       -0.0168388083055111
   41        0.0014898929371955
   42        0.0131778307526648
   43       -0.0271547112466116
   44       -0.0000000000000000
   45       -0.0022179689292183
   46       -0.0148784503013523
   47       -0.0733740159857642
   48       -0.1316314785089188
   49       -0.0168388082941372
   50        0.0014898929258563
   51       -0.0295902745222630
   52        0.0059539247339668
   53       -0.0000000000000000
Sym= A
 Ene=  -0.50888509536114301
Spin= Alpha
Occup=  2.0000
    1        0.0000000000000000
    2        0.0000000000000000
    3        0.0000000000000000
    4        0.0000000000000000
    5        0.0000000000000000
    6        0.0000000000000001
    7        0.0000000000000002
    8        0.0000000000000001
    9       -0.0000000000000001
   10       -0.0000000000000011
   11       -0.0000000000000008
   12        0.0000000000000000
   13        0.0000000000000000
   14        0.0000000000000000
   15       -0.0106201704835464
   16        0.0000000000000001
   17        0.0000000000000002
   18       -0.0698679817021783
   19        0.0000000000000003
   20        0.0000000000000006
   21       -0.2319686348462502
   22        0.0000000000000006
   23        0.0000000000000012
   24       -0.4472668905631912
   25        0.0000000000000004
   26        0.0000000000000009
   27       -0.4101011784636217
   28        0.0000000000000001
   29        0.0000000000000002
   30       -0.0841894809072897
   31        0.0000000000000000
   32       -0.0097091133706991
   33       -0.0125417544614476
   34        0.0000000000000000
   35        0.0000000000000000
   36        0.0000000000000000
   37        0.0000000000000000
   38        0.0000000000000002
   39        0.0000000000000004
   40        0.0000000000000002
   41        0.0000000000000000
   42       -0.0000000000000000
   43        0.0000000000000000
   44       -0.0326532565612994
   45        0.0000000000000000
   46        0.0000000000000001
   47        0.0000000000000002
   48        0.0000000000000005
   49        0.0000000000000003
   50        0.0000000000000000
   51        0.0000000000000000
   52       -0.0000000000000000
   53       -0.0326532565593767
Sym= A
 Ene=    4.4047703682861997E-002
Spin= Alpha
Occup=  0.0000
    1       -0.0000318788070511
    2       -0.0002305445321504
    3       -0.0012550743390327
    4       -0.0035839935640377
    5       -0.0049120536519699
    6       -0.0072276017991887
    7       -0.0322313358345618
    8        0.0391682031500631
    9       -0.0544739839033904
   10        0.1374763613606567
   11       -0.0152924196270351
   12        0.9812402198468603
   13        0.0007422414481886
   14        0.0009587909419851
   15       -0.0000000000000000
   16        0.0046020403507756
   17        0.0059446890329412
   18       -0.0000000000000000
   19        0.0166547679263914
   20        0.0215138088354432
   21       -0.0000000000000001
   22        0.0287443067272874
   23        0.0371304797208271
   24       -0.0000000000000002
   25        0.0516239010717467
   26        0.0666852127805281
   27       -0.0000000000000001
   28        0.0350818087355065
   29        0.0453169528429764
   30       -0.0000000000000000
   31       -0.0004242120155941
   32        0.0000000000000000
   33        0.0000000000000000
   34       -0.0005693880913323
   35        0.0022000760682859
   36       -0.0000191517330329
   37       -0.0025314088601399
   38        0.0092374994970498
   39       -0.0715685152973149
   40       -0.0446400924523083
   41       -0.8327387301836204
   42       -0.0143535801837230
   43        0.0015054538642992
   44       -0.0000000000000000
   45       -0.0000191517347268
   46       -0.0025314088451571
   47        0.0092374994006496
   48       -0.0715685150631377
   49       -0.0446400929563660
   50       -0.8327387300244000
   51        0.0050537105382202
   52       -0.0135185674741100
   53       -0.0000000000000000
Sym= A
 Ene=    7.1746638679045932E-002
Spin= Alpha
Occup=  0.0000
    1        0.0000000000000057
    2        0.0000000000000594
    3        0.0000000000001394
    4        0.0000000000019878
    5       -0.0000000000049630
    6        0.0000000000120865
    7       -0.0000000000135191
    8        0.0000000001650087
    9       -0.0000000002323120
   10        0.0000000001591406
   11       -0.0000000004299736
   12        0.0000000006671951
   13       -0.0010858450900157
   14        0.0008405995453170
   15       -0.0000000000000000
   16       -0.0077845757899185
   17        0.0060263760726042
   18       -0.0000000000000000
   19       -0.0228763126406758
   20        0.0177095408812474
   21       -0.0000000000000000
   22       -0.0561391671738350
   23        0.0434597519543963
   24       -0.0000000000000000
   25        0.0124416907023154
   26       -0.0096316498181117
   27       -0.0000000000000000
   28       -0.3810317145718981
   29        0.2949730941215004
   30       -0.0000000000000000
   31        0.0000000000394941
   32        0.0000000000000000
   33        0.0000000000000000
   34        0.0007136812684590
   35        0.0001847034495507
   36       -0.0002931750746456
   37        0.0007039494339076
   38       -0.0192990178022284
   39        0.0253009052076045
   40       -0.0410080538691019
   41        2.4588114591826145
   42        0.0144316990936120
   43        0.0005375543375793
   44       -0.0000000000000000
   45        0.0002931750762734
   46       -0.0007039494397358
   47        0.0192990178214967
   48       -0.0253009049003085
   49        0.0410080532876254
   50       -2.4588114592672179
   51        0.0030954389403520
   52       -0.0141060683892797
   53       -0.0000000000000000
Sym= A
 Ene=   0.23960554676589971
Spin= Alpha
Occup=  0.0000
    1        0.0000324159089540
    2        0.0002567196050427
    3        0.0012024909054173
    4        0.0049315598807106
    5       -0.0003474021098050
    6        0.0165749778817272
    7        0.0171787706490744
    8        0.0712511140668741
    9       -0.0776227230406966
   10       -0.0611383907450141
   11       -0.1310781093146098
   12       -3.6061513914674830
   13        0.0015329599359049
   14        0.0019802021418323
   15        0.0000000000000000
   16        0.0073198697708786
   17        0.0094554472404285
   18        0.0000000000000000
   19        0.0382459369018848
   20        0.0494042175451377
   21        0.0000000000000000
   22        0.0247217303246121
   23        0.0319343136464316
   24        0.0000000000000000
   25        0.3101114604774308
   26        0.4005867110842002
   27        0.0000000000000000
   28       -1.4288877830773337
   29       -1.8457668620942236
   30        0.0000000000000000
   31       -0.0155405306338820
   32       -0.0000000000000000
   33       -0.0000000000000000
   34        0.0009138920290347
   35       -0.0035312158696280
   36        0.0008879155400471
   37        0.0041584298422646
   38        0.0413265467163817
   39       -0.1483356190783528
   40        2.4915440376324098
   41       -0.1022007115503221
   42        0.0221894748569743
   43       -0.0223317379744322
   44        0.0000000000000000
   45        0.0008879155407468
   46        0.0041584298370237
   47        0.0413265467488767
   48       -0.1483356192089988
   49        2.4915440375799549
   50       -0.1022007115027185
   51       -0.0271789933307940
   52        0.0158865237784827
   53        0.0000000000000000
Sym= A
 Ene=   0.24522037826963039
Spin= Alpha
Occup=  0.0000
    1       -0.0000000000000000
    2       -0.0000000000000000
    3       -0.0000000000000000
    4       -0.0000000000000000
    5       -0.0000000000000000
    6       -0.0000000000000000
    7       -0.0000000000000000
    8       -0.0000000000000000
    9        0.0000000000000000
   10        0.0000000000000000
   11        0.0000000000000000
   12       -0.0000000000000000
   13       -0.0000000000000000
   14       -0.0000000000000000
   15        0.0042558535990466
   16       -0.0000000000000000
   17       -0.0000000000000000
   18        0.0216734196821264
   19       -0.0000000000000000
   20       -0.0000000000000000
   21        0.1045164067127663
   22       -0.0000000000000000
   23       -0.0000000000000000
   24        0.0857062759810724
   25       -0.0000000000000000
   26       -0.0000000000000000
   27        0.5990492265988797
   28       -0.0000000000000000
   29       -0.0000000000000000
   30       -1.2841591741728573
   31       -0.0000000000000000
   32        0.0040241247721655
   33        0.0051981661517896
   34       -0.0000000000000000
   35       -0.0000000000000000
   36       -0.0000000000000000
   37       -0.0000000000000000
   38       -0.0000000000000000
   39       -0.0000000000000000
   40       -0.0000000000000000
   41       -0.0000000000000000
   42        0.0000000000000000
   43       -0.0000000000000000
   44       -0.0112876026408221
   45       -0.0000000000000000
   46       -0.0000000000000000
   47       -0.0000000000000000
   48       -0.0000000000000000
   49       -0.0000000000000000
   50       -0.0000000000000000
   51       -0.0000000000000000
   52        0.0000000000000000
   53       -0.0112876026032902
Sym= A
 Ene=   0.24768517069766641
Spin= Alpha
Occup=  0.0000
    1        0.0000508065759163
    2        0.0004060433956063
    3        0.0018719026817741
    4        0.0079363819574511
    5       -0.0014385963761364
    6        0.0274462179697734
    7        0.0239892007447874
    8        0.1327366878519594
    9       -0.1487524936304974
   10       -0.0324236721190824
   11       -0.6762865269288597
   12       -2.8082449840633732
   13       -0.0022800014900357
   14       -0.0029451936312766
   15        0.0000000000000000
   16       -0.0137760452357693
   17       -0.0177952167522102
   18        0.0000000000000000
   19       -0.0523054277929525
   20       -0.0675655754982850
   21        0.0000000000000001
   22       -0.0759590036104808
   23       -0.0981200996730909
   24        0.0000000000000001
   25       -0.2060209365915281
   26       -0.2661276988490126
   27        0.0000000000000001
   28       -0.3909239458298355
   29       -0.5049762991020332
   30        0.0000000000000000
   31       -0.0028925129468858
   32       -0.0000000000000000
   33       -0.0000000000000000
   34        0.0022352010539849
   35       -0.0086366626816583
   36        0.0014263196613378
   37       -0.0001036777314761
   38        0.0821011894522919
   39       -0.1724296596053939
   40        2.8795621198273120
   41       -0.7015456680022293
   42        0.0201291719617284
   43       -0.0114089926410644
   44        0.0000000000000000
   45        0.0014263196651192
   46       -0.0001036778088936
   47        0.0821011894926053
   48       -0.1724296595918470
   49        2.8795621194862444
   50       -0.7015456679094954
   51       -0.0160884339115197
   52        0.0166286190068828
   53        0.0000000000000000
Sym= A
 Ene=   0.26365154345442865
Spin= Alpha
Occup=  0.0000
    1        0.0000000000000112
    2        0.0000000000001035
    3        0.0000000000004366
    4        0.0000000000021576
    5       -0.0000000000006671
    6        0.0000000000079671
    7        0.0000000000085962
    8        0.0000000000361257
    9       -0.0000000000558112
   10       -0.0000000000825104
   11        0.0000000003255246
   12        0.0000000003847298
   13       -0.0017334204474099
   14        0.0013419155733466
   15        0.0000000000000000
   16       -0.0118641310990056
   17        0.0091845358746449
   18        0.0000000000000000
   19       -0.0377594619543747
   20        0.0292312289829863
   21        0.0000000000000000
   22       -0.0706200376344596
   23        0.0546700188081955
   24        0.0000000000000000
   25        0.0093048385035437
   26       -0.0072032767787426
   27        0.0000000000000000
   28       -2.3646432556970818
   29        1.8305723919107373
   30        0.0000000000000000
   31       -0.0000000000800686
   32       -0.0000000000000000
   33       -0.0000000000000000
   34        0.0193944475127088
   35        0.0050193566120942
   36        0.0014449869961123
   37        0.0003446367861984
   38        0.0841621056348421
   39       -0.2730345080754231
   40        4.0364157883119409
   41       -0.3563727519811083
   42        0.0285891134407301
   43        0.0184059909426850
   44        0.0000000000000000
   45       -0.0014449869936647
   46       -0.0003446368521296
   47       -0.0841621056247558
   48        0.2730345076427304
   49       -4.0364157887096228
   50        0.3563727520231748
   51       -0.0106559392134841
   52       -0.0322888351000382
   53        0.0000000000000000
Sym= A
 Ene=   0.31683040896744080
Spin= Alpha
Occup=  0.0000
    1        0.0000000000000072
    2        0.0000000000000983
    3        0.0000000000001759
    4        0.0000000000032374
    5       -0.0000000000083687
    6        0.0000000000190326
    7       -0.0000000000221292
    8        0.0000000002475145
    9       -0.0000000003081743
   10        0.0000000001201280
   11       -0.0000000003220154
   12        0.0000000002836619
   13        0.0035869469784448
   14       -0.0027768104522561
   15        0.0000000000000000
   16        0.0201205474542334
   17       -0.0155761840907227
   18        0.0000000000000000
   19        0.0847111869436913
   20       -0.0655785855637483
   21        0.0000000000000000
   22        0.0966909431498843
   23       -0.0748526319091075
   24        0.0000000000000000
   25        0.5657524474614676
   26       -0.4379733850365822
   27        0.0000000000000000
   28       -1.5615944320876121
   29        1.2088976414361234
   30        0.0000000000000000
   31        0.0000000000318946
   32       -0.0000000000000000
   33       -0.0000000000000000
   34        0.0187032928886140
   35        0.0048404832103325
   36       -0.0001757347848997
   37        0.0047393593478451
   38       -0.0199977417895562
   39       -0.0045990037890808
   40       -0.0769190337840017
   41        2.0347554099908431
   42        0.0000873933851100