

     ************************************************************************
     *************** Dalton - An Electronic Structure Program ***************
     ************************************************************************

    This is output from DALTON release Dalton2020.1 (2022)
         ( Web site: http://daltonprogram.org )

   ----------------------------------------------------------------------------

    NOTE:
     
    Dalton is an experimental code for the evaluation of molecular
    properties using (MC)SCF, DFT, CI, and CC wave functions.
    The authors accept no responsibility for the performance of
    the code or for the correctness of the results.
     
    The code (in whole or part) is provided under a licence and
    is not to be reproduced for further distribution without
    the written permission of the authors or their representatives.
     
    See the home page "http://daltonprogram.org" for further information.
     
    If results obtained with this code are published,
    the appropriate citations would be both of:
     
       K. Aidas, C. Angeli, K. L. Bak, V. Bakken, R. Bast,
       L. Boman, O. Christiansen, R. Cimiraglia, S. Coriani,
       P. Dahle, E. K. Dalskov, U. Ekstroem,
       T. Enevoldsen, J. J. Eriksen, P. Ettenhuber, B. Fernandez,
       L. Ferrighi, H. Fliegl, L. Frediani, K. Hald, A. Halkier,
       C. Haettig, H. Heiberg, T. Helgaker, A. C. Hennum,
       H. Hettema, E. Hjertenaes, S. Hoest, I.-M. Hoeyvik,
       M. F. Iozzi, B. Jansik, H. J. Aa. Jensen, D. Jonsson,
       P. Joergensen, J. Kauczor, S. Kirpekar,
       T. Kjaergaard, W. Klopper, S. Knecht, R. Kobayashi, H. Koch,
       J. Kongsted, A. Krapp, K. Kristensen, A. Ligabue,
       O. B. Lutnaes, J. I. Melo, K. V. Mikkelsen, R. H. Myhre,
       C. Neiss, C. B. Nielsen, P. Norman, J. Olsen,
       J. M. H. Olsen, A. Osted, M. J. Packer, F. Pawlowski,
       T. B. Pedersen, P. F. Provasi, S. Reine, Z. Rinkevicius,
       T. A. Ruden, K. Ruud, V. Rybkin, P. Salek, C. C. M. Samson,
       A. Sanchez de Meras, T. Saue, S. P. A. Sauer,
       B. Schimmelpfennig, K. Sneskov, A. H. Steindal,
       K. O. Sylvester-Hvid, P. R. Taylor, A. M. Teale,
       E. I. Tellgren, D. P. Tew, A. J. Thorvaldsen, L. Thoegersen,
       O. Vahtras, M. A. Watson, D. J. D. Wilson, M. Ziolkowski
       and H. Agren,
       "The Dalton quantum chemistry program system",
       WIREs Comput. Mol. Sci. 2014, 4:269–284 (doi: 10.1002/wcms.1172)
     
    and
     
       Dalton, a molecular electronic structure program,
       Release Dalton2020.1 (2022), see http://daltonprogram.org
   ----------------------------------------------------------------------------

    Authors in alphabetical order (Major contribution(s) in parenthesis):

  Kestutis Aidas,           Vilnius University,           Lithuania   (QM/MM)
  Celestino Angeli,         University of Ferrara,        Italy       (NEVPT2)
  Keld L. Bak,              UNI-C,                        Denmark     (AOSOPPA, non-adiabatic coupling, magnetic properties)
  Vebjoern Bakken,          University of Oslo,           Norway      (DALTON; geometry optimizer, symmetry detection)
  Radovan Bast,             UiT The Arctic U. of Norway,  Norway      (DALTON installation and execution frameworks)
  Pablo Baudin,             University of Valencia,       Spain       (Cholesky excitation energies)
  Linus Boman,              NTNU,                         Norway      (Cholesky decomposition and subsystems)
  Bruno N. Cabral Tenorio,  Technical Univ. of Denmark,   Denmark     (Lanczos-based CC methods)
  Ove Christiansen,         Aarhus University,            Denmark     (CC module)
  Renzo Cimiraglia,         University of Ferrara,        Italy       (NEVPT2)
  Sonia Coriani,            Technical Univ. of Denmark,   Denmark     (CC and RESPONS modules)
  Janusz Cukras,            University of Warsaw,         Poland      (MChD in RESPONS)
  Paal Dahle,               University of Oslo,           Norway      (Parallelization)
  Erik K. Dalskov,          UNI-C,                        Denmark     (SOPPA)
  Thomas Enevoldsen,        Univ. of Southern Denmark,    Denmark     (SOPPA)
  Janus J. Eriksen,         Aarhus University,            Denmark     (Polarizable embedding, TDA)
  Rasmus Faber,             Technical Univ. of Denmark,   Denmark     (Vib.avg. NMR w. SOPPA, parallel AO-SOPPA, CVS-CC and EOMCC)
  Tobias Fahleson,          KTH Stockholm,                Sweden      (Damped cubic response)
  Berta Fernandez,          U. of Santiago de Compostela, Spain       (Doublet spin, ESR in RESPONS)
  Lara Ferrighi,            Aarhus University,            Denmark     (PCM Cubic response)
  Heike Fliegl,             University of Oslo,           Norway      (CCSD(R12))
  Luca Frediani,            UiT The Arctic U. of Norway,  Norway      (PCM)
  Emmanuel Fromager,        Univ. Strasbourg,             France      (MC-srDFT)
  Bin Gao,                  UiT The Arctic U. of Norway,  Norway      (Gen1Int library)
  Andre S. P. Gomes,        CNRS/Universite de Lille,     France      (Frozen density embedding)
  Christof Haettig,         Ruhr-University Bochum,       Germany     (CC module)
  Kasper Hald,              Aarhus University,            Denmark     (CC module)
  Asger Halkier,            Aarhus University,            Denmark     (CC module)
  Frederik Beyer Hansen,    University of Copenhagen,     Denmark     (Parallel AO-SOPPA)
  Erik D. Hedegaard,        Univ. of Southern Denmark,    Denmark     (Polarizable embedding, QM/MM, and MC-srDFT)
  Hanne Heiberg,            University of Oslo,           Norway      (Geometry analysis, selected one-electron integrals)
  Trygve Helgaker,          University of Oslo,           Norway      (DALTON; ABACUS, ERI, DFT modules, London, and much more)
  Alf Christian Hennum,     University of Oslo,           Norway      (Parity violation)
  Hinne Hettema,            University of Auckland,       New Zealand (Quadratic response in RESPONS; SIRIUS supersymmetry)
  Eirik Hjertenaes,         NTNU,                         Norway      (Cholesky decomposition)
  Pi A. B. Haase,           University of Copenhagen,     Denmark     (Triplet AO-SOPPA)
  Maria Francesca Iozzi,    University of Oslo,           Norway      (RPA)
  Christoph Jacob           TU Braunschweig               Germany     (Frozen density embedding)
  Brano Jansik              Technical Univ. of Ostrava    Czech Rep.  (DFT cubic response)
  Hans Joergen Aa. Jensen,  Univ. of Southern Denmark,    Denmark     (DALTON; SIRIUS, RESPONS, ABACUS, MC-srDFT, and much more)
  Dan Jonsson,              UiT The Arctic U. of Norway,  Norway      (Cubic response in RESPONS module)
  Poul Joergensen,          Aarhus University,            Denmark     (RESPONS, ABACUS, and CC modules)
  Maciej Kaminski,          University of Warsaw,         Poland      (CPPh in RESPONS)
  Joanna Kauczor,           Linkoeping University,        Sweden      (Complex polarization propagator (CPP) module)
  Sheela Kirpekar,          Univ. of Southern Denmark,    Denmark     (Mass-velocity & Darwin integrals)
  Erik Kjellgren,           Univ. of Southern Denmark,    Denmark     (MC-srDFT)
  Wim Klopper,              KIT Karlsruhe,                Germany     (R12 code in CC, SIRIUS, and ABACUS modules)
  Stefan Knecht,            ETH Zurich,                   Switzerland (Parallel CI and MCSCF, MC-srDFT)
  Rika Kobayashi,           Australian National Univ.,    Australia   (DIIS in CC, London in MCSCF)
  Henrik Koch,              NTNU,                         Norway      (CC module, Cholesky decomposition)
  Jacob Kongsted,           Univ. of Southern Denmark,    Denmark     (Polarizable embedding, polarizable density embedding, QM/MM)
  Andrea Ligabue,           University of Modena,         Italy       (CTOCD, AOSOPPA)
  Nanna H. List             Univ. of Southern Denmark,    Denmark     (Polarizable embedding)
  Ola B. Lutnaes,           University of Oslo,           Norway      (DFT Hessian)
  Juan I. Melo,             University of Buenos Aires,   Argentina   (LRESC, Relativistic Effects on NMR Shieldings)
  Kurt V. Mikkelsen,        University of Copenhagen,     Denmark     (MC-SCRF and QM/MM)
  Rolf H. Myhre,            NTNU,                         Norway      (Subsystems and CC3)
  Christian Neiss,          Univ. Erlangen-Nuernberg,     Germany     (CCSD(R12))
  Christian B. Nielsen,     University of Copenhagen,     Denmark     (QM/MM)
  Patrick Norman,           KTH Stockholm,                Sweden      (Cubic response and complex frequency response in RESPONS)
  Jeppe Olsen,              Aarhus University,            Denmark     (SIRIUS CI/density modules)
  Jogvan Magnus H. Olsen,   Aarhus University,            Denmark     (Polarizable embedding and polarizable density embedding)
  Anders Osted,             Copenhagen University,        Denmark     (QM/MM)
  Martin J. Packer,         University of Sheffield,      UK          (SOPPA)
  Filip Pawlowski,          Kazimierz Wielki University,  Poland      (CC3)
  Morten N. Pedersen,       Univ. of Southern Denmark,    Denmark     (Polarizable embedding)
  Thomas B. Pedersen,       University of Oslo,           Norway      (Cholesky decomposition)
  Patricio F. Provasi,      University of Northeastern,   Argentina   (Analysis of coupling constants in localized orbitals)
  Peter Reinholdt,          Univ. of Southern Denmark,    Denmark     (Polarizable embedding and polarizable density embedding)
  Zilvinas Rinkevicius,     KTH Stockholm,                Sweden      (open-shell DFT, ESR)
  Elias Rudberg,            KTH Stockholm,                Sweden      (DFT grid and basis info)
  Torgeir A. Ruden,         University of Oslo,           Norway      (Numerical derivatives in ABACUS)
  Kenneth Ruud,             UiT The Arctic U. of Norway,  Norway      (DALTON; ABACUS magnetic properties and much more)
  Pawel Salek,              KTH Stockholm,                Sweden      (DALTON; DFT code)
  Claire C. M. Samson       University of Karlsruhe       Germany     (Boys localization, r12 integrals in ERI)
  Alfredo Sanchez de Meras, University of Valencia,       Spain       (CC module, Cholesky decomposition)
  Trond Saue,               Paul Sabatier University,     France      (direct Fock matrix construction)
  Stephan P. A. Sauer,      University of Copenhagen,     Denmark     (SOPPA(CCSD), SOPPA prop., AOSOPPA, vibrational g-factors)
  Bernd Schimmelpfennig,    Forschungszentrum Karlsruhe,  Germany     (AMFI module)
  Anna K. Schnack-Petersen, University of Copenhagen,     Denmark     (RPA(D) and HRPA(D) properties in AOSOPPA)
  Kristian Sneskov,         Aarhus University,            Denmark     (Polarizable embedding, QM/MM)
  Arnfinn H. Steindal,      UiT The Arctic U. of Norway,  Norway      (parallel QM/MM, polarizable embedding)
  Casper Steinmann,         Aalborg University,           Denmark     (QFIT, polarizable embedding)
  K. O. Sylvester-Hvid,     University of Copenhagen,     Denmark     (MC-SCRF)
  Peter R. Taylor,          VLSCI/Univ. of Melbourne,     Australia   (Symmetry handling ABACUS, integral transformation)
  Andrew M. Teale,          University of Nottingham,     England     (DFT-AC, DFT-D)
  David P. Tew,             University of Bristol,        England     (CCSD(R12))
  Julien Toulouse,          Sorbonne Univ.,               France      (MC-srDFT)
  Olav Vahtras,             KTH Stockholm,                Sweden      (Triplet response, spin-orbit, ESR, TDDFT, open-shell DFT)
  Lucas Visscher,           Vrije Universiteit Amsterdam, Netherlands (Frozen density embedding)
  David J. Wilson,          La Trobe University,          Australia   (DFT Hessian and DFT magnetizabilities)
  Hans Agren,               KTH Stockholm,                Sweden      (SIRIUS module, RESPONS, MC-SCRF solvation)
 --------------------------------------------------------------------------------

     Date and time (Linux)  : Wed Nov 30 14:44:04 2022
     Host name              : nodo8                                   

 * Work memory size             :   256000000 =  1.907 gigabytes.

 * Directories for basis set searches:
   1) /home/andyzapa/otros
   2) /home/andyzapa/dalton/buildompi/basis


Compilation information
-----------------------

 Who compiled             | andyzapa
 Host                     | headnode
 System                   | Linux-5.14.0-119.el9.x86_64
 CMake generator          | Unix Makefiles
 Processor                | x86_64
 64-bit integers          | OFF
 MPI                      | ON
 Fortran compiler         | /software/software/OpenMPI/4.1.4-GCC-11.3.0/bin/mp
                          | if90
 Fortran compiler version | GNU Fortran (GCC) 11.3.0
 C compiler               | /software/software/OpenMPI/4.1.4-GCC-11.3.0/bin/mp
                          | icc
 C compiler version       | gcc (GCC) 11.3.0
 C++ compiler             | /software/software/OpenMPI/4.1.4-GCC-11.3.0/bin/mp
                          | icxx
 C++ compiler version     | unknown
 Static linking           | OFF
 Last Git revision        | 9d7c5e435b75a9695d5ac8714121d12e6486149f
 Git branch               | (HEAD detached at Dalton2020.1)
 Configuration time       | 2022-11-30 14:38:01.978506

 * Sequential calculation.


   Content of the .dal input file
 ----------------------------------

**DALTON
.RUN WAVE FUNCTION
*MOLBAS
.UNCONT
**INTEGRALS
.KINENERG
.NUCPOT
.PROPRI
**WAVE FUNCTIONS
!.RESTART
.HF
*END OF


   Content of the .mol file
 ----------------------------

BASIS
STO-1G
LiH
opt HF/STO-1G
Angstrom Atomtypes=2 Nosymmetry
Charge=3.0 Atoms=1
Li       0.0000000000     0.0000000000     -0.2888551123
Charge=1.0 Atoms=1
H        0.0000000000     0.0000000000      1.2219003704


       *******************************************************************
       *********** Output from DALTON general input processing ***********
       *******************************************************************

 --------------------------------------------------------------------------------
   Overall default print level:    0
   Print level for DALTON.STAT:    1

    HERMIT 1- and 2-electron integral sections will be executed
    "Old" integral transformation used (limited to max 255 basis functions)
    Wave function sections will be executed (SIRIUS module)
 --------------------------------------------------------------------------------

@ * Nuclear model: Point charge.


 Changes of defaults for *MOLBAS
 -------------------------------


 Uncontracted basis forced, irrespective of basis input file.



   ****************************************************************************
   *************** Output of molecule and basis set information ***************
   ****************************************************************************


    The two title cards from your ".mol" input:
    ------------------------------------------------------------------------
 1: LiH                                                                     
 2: opt HF/STO-1G                                                           
    ------------------------------------------------------------------------

  Coordinates are entered in Angstrom and converted to atomic units.
          - Conversion factor : 1 bohr = 0.52917721 A

  Atomic type no.    1
  --------------------
  Nuclear charge:   3.00000
  Number of symmetry independent centers:    1
  Number of basis sets to read;    2
  Basis set file used for this atomic type with Z =   3 :
     "/home/andyzapa/dalton/buildompi/basis/STO-1G"

  Atomic type no.    2
  --------------------
  Nuclear charge:   1.00000
  Number of symmetry independent centers:    1
  Number of basis sets to read;    2
  Basis set file used for this atomic type with Z =   1 :
     "/home/andyzapa/dalton/buildompi/basis/STO-1G"


                         SYMGRP: Point group information
                         -------------------------------

@    Point group: C1 


                                 Isotopic Masses
                                 ---------------

                           Li          7.016005
                           H           1.007825

                       Total mass:     8.023830 amu
                       Natural abundance:  92.486 %

 Center-of-mass coordinates (a.u.):    0.000000    0.000000   -0.187268
 Center-of-mass coordinates (Angs):    0.000000    0.000000   -0.099098


  Atoms and basis sets
  --------------------

  Number of atom types :    2
  Total number of atoms:    2

  Basis set used is "STO-1G" from the basis set library.

  label    atoms   charge   prim   cont     basis
  ----------------------------------------------------------------------
  Li          1    3.0000     9     9      [1s1p1d|1s1p1d]                                    
  H           1    1.0000     2     2      [2s|2s]                                            
  ----------------------------------------------------------------------
  total:      2    4.0000    11    11
  ----------------------------------------------------------------------
  Spherical harmonic basis used.

  Threshold for neglecting AO integrals:  1.00D-12


  Cartesian Coordinates (a.u.)
  ----------------------------

  Total number of coordinates:    6
  Li      :     1  x   0.0000000000    2  y   0.0000000000    3  z  -0.5458570521
  H       :     4  x   0.0000000000    5  y   0.0000000000    6  z   2.3090570521


   Interatomic separations (in Angstrom):
   --------------------------------------

            Li          H     
            ------      ------
 Li    :    0.000000
 H     :    1.510755    0.000000


  Max    interatomic separation is    1.5108 Angstrom (    2.8549 Bohr)
  between atoms    2 and    1, "H     " and "Li    ".

  Min HX interatomic separation is    1.5108 Angstrom (    2.8549 Bohr)


  Bond distances (Angstrom):
  --------------------------

                  atom 1     atom 2       distance
                  ------     ------       --------
  bond distance:  H          Li           1.510755




 Principal moments of inertia (u*A**2) and principal axes
 --------------------------------------------------------

   IA       0.000000          0.000000    0.000000    1.000000
   IB       2.011322          0.000000    1.000000    0.000000
   IC       2.011322          1.000000    0.000000    0.000000


 Rotational constants
 --------------------

@    The molecule is linear.

               B =       251267.05 MHz     (    8.381367 cm-1)


@  Nuclear repulsion energy :    1.050819706153 Hartree


                     .---------------------------------------.
                     | Starting in Integral Section (HERMIT) |
                     `---------------------------------------'



 ***************************************************************************************
 ****************** Output from **INTEGRALS input processing (HERMIT) ******************
 ***************************************************************************************



    *************************************************************************
    ****************** Output from HERMIT input processing ******************
    *************************************************************************


 Default print level:        1

 Calculation of one- and two-electron Hamiltonian integrals.

 The following one-electron property integrals are calculated as requested:
          - overlap integrals
          - electronic kinetic energy
          - Potential energy at the nuclei

 All one-electron property integrals are printed.

 Center of mass  (bohr):      0.000000000000      0.000000000000     -0.187268471909
 Operator center (bohr):      0.000000000000      0.000000000000      0.000000000000
 Gauge origin    (bohr):      0.000000000000      0.000000000000      0.000000000000
 Dipole origin   (bohr):      0.000000000000      0.000000000000      0.000000000000

Calculation of 2-electron integrals are postponed until they are needed.


     ************************************************************************
     ************************** Output from HERINT **************************
     ************************************************************************



                      Nuclear contribution to dipole moments
                      --------------------------------------

                 au               Debye          C m (/(10**-30)

      x      0.00000000         0.00000000         0.00000000
      y      0.00000000         0.00000000         0.00000000
      z      0.67148590         1.70674680         5.69309451




                        +---------------------------------+
                        ! Integrals of operator: HUCKOVLP !
                        +---------------------------------+

 Symmetry of operator:  A  ( 1)

               Column   1     Column   2     Column   3     Column   4
       1       1.00000000
       2       0.00000000     1.00000000
       3       0.00000000     0.00000000     1.00000000
       4       0.00000000     0.00000000     0.00000000     1.00000000
       6       0.00000000     0.00000000    -0.00000000     0.00000000
       7       0.00000000     0.00000000     0.00000000    -0.00000000
       8       0.00000000    -0.00000000     0.00000000     0.00000000
      10       0.00009950     0.00000000     0.00000000     0.27483064
      11       0.03677179     0.00000000     0.00000000     0.51925894
      12       0.83195000     0.00000000     0.00000000    -0.00000000
      13      -0.10794984     0.00000000     0.00000000    -0.00000000
      14       0.00000000     0.62751081     0.00000000     0.00000000
      15       0.00000000     0.00000000     0.62751081     0.00000000
      16       0.00000000     0.00000000     0.00000000     0.62751081
      17       0.03036247     0.00000000     0.00000000     0.46932959

               Column   5     Column   6     Column   7     Column   8
       5       1.00000000
       6       0.00000000     1.00000000
       7       0.00000000     0.00000000     1.00000000
       8       0.00000000     0.00000000     0.00000000     1.00000000
       9       0.00000000     0.00000000     0.00000000     0.00000000
      10       0.00000000     0.00000000     0.17705269     0.00000000
      11       0.00000000     0.00000000     0.36075314     0.00000000
      12       0.00000000     0.00000000     0.00000000     0.00000000
      13       0.00000000     0.00000000     0.00000000     0.00000000
      17       0.00000000     0.00000000     0.32689846     0.00000000

               Column   9     Column  10     Column  11     Column  12
       9       1.00000000
      10      -0.00000000     1.00000000
      11      -0.00000000     0.60623560     1.00000000
      12       0.00000000     0.01265297     0.12922924     1.00000000
      13       0.00000000     0.15661933     0.44969938    -0.00000006
      16       0.00000000     0.22019897     0.53025598     0.00000000
      17       0.00000000     0.77747969     0.96510378     0.11137929

               Column  13     Column  14     Column  15     Column  16
      13       1.00000000
      14       0.00000000     1.00000000
      15       0.00000000     0.00000000     1.00000000
      16       0.00000000     0.00000000     0.00000000     1.00000000
      17       0.45878473     0.00000000     0.00000000     0.49804694

               Column  17
      17       1.00000000
    ==== End of matrix output ====


                         +-------------------------------+
                         ! Integrals of operator: HUCKEL !
                         +-------------------------------+

 Symmetry of operator:  A  ( 1)

               Column   1     Column   2     Column   3     Column   4
       1       1.00000000
       2       0.00000000     1.00000000
       3       0.00000000     0.00000000     1.00000000
       4       0.00000000     0.00000000     0.00000000     1.00000000
       6       0.00000000     0.00000000    -0.00000000     0.00000000
       7       0.00000000     0.00000000     0.00000000    -0.00000000
       8       0.00000000    -0.00000000     0.00000000     0.00000000
      10       0.00009950     0.00000000     0.00000000     0.27483064
      11       0.03677179     0.00000000     0.00000000     0.51925894
      12       0.83195000     0.00000000     0.00000000    -0.00000000
      13      -0.10794984     0.00000000     0.00000000    -0.00000000
      14       0.00000000     0.62751081     0.00000000     0.00000000
      15       0.00000000     0.00000000     0.62751081     0.00000000
      16       0.00000000     0.00000000     0.00000000     0.62751081
      17       0.03036247     0.00000000     0.00000000     0.46932959

               Column   5     Column   6     Column   7     Column   8
       5       1.00000000
       6       0.00000000     1.00000000
       7       0.00000000     0.00000000     1.00000000
       8       0.00000000     0.00000000     0.00000000     1.00000000
       9       0.00000000     0.00000000     0.00000000     0.00000000
      10       0.00000000     0.00000000     0.17705269     0.00000000
      11       0.00000000     0.00000000     0.36075314     0.00000000
      12       0.00000000     0.00000000     0.00000000     0.00000000
      13       0.00000000     0.00000000     0.00000000     0.00000000
      17       0.00000000     0.00000000     0.32689846     0.00000000

               Column   9     Column  10     Column  11     Column  12
       9       1.00000000
      10      -0.00000000     1.00000000
      11      -0.00000000     0.60623560     1.00000000
      12       0.00000000     0.01265297     0.12922924    -2.47770000
      13       0.00000000     0.15661933     0.44969938     0.00000000
      16       0.00000000     0.22019897     0.53025598     0.00000000
      17       0.00000000     0.77747969     0.96510378     0.00000000

               Column  13     Column  14     Column  15     Column  16
      13      -0.19630000
      14       0.00000000    -0.13000000
      15       0.00000000     0.00000000    -0.13000000
      16       0.00000000     0.00000000     0.00000000    -0.13000000

               Column  17
      17      -0.50000000
    ==== End of matrix output ====


                         +--------------------------------+
                         ! Integrals of operator: OVERLAP !
                         +--------------------------------+

 Symmetry of operator:  A  ( 1)

               Column   1     Column   2     Column   3     Column   4
       1       1.00000000
       2       0.00000000     1.00000000
       3       0.00000000     0.00000000     1.00000000
       4       0.00000000     0.00000000     0.00000000     1.00000000
       6       0.00000000     0.00000000    -0.00000000     0.00000000
       7       0.00000000     0.00000000     0.00000000    -0.00000000
       8       0.00000000    -0.00000000     0.00000000     0.00000000
      10       0.00009950     0.00000000     0.00000000     0.27483064
      11       0.03677179     0.00000000     0.00000000     0.51925894

               Column   5     Column   6     Column   7     Column   8
       5       1.00000000
       6       0.00000000     1.00000000
       7       0.00000000     0.00000000     1.00000000
       8       0.00000000     0.00000000     0.00000000     1.00000000
       9       0.00000000     0.00000000     0.00000000     0.00000000
      10       0.00000000     0.00000000     0.17705269     0.00000000
      11       0.00000000     0.00000000     0.36075314     0.00000000

               Column   9     Column  10     Column  11
       9       1.00000000
      10      -0.00000000     1.00000000
      11      -0.00000000     0.60623560     1.00000000
    ==== End of matrix output ====


                        +---------------------------------+
                        ! Integrals of operator: HJPOPOVL !
                        +---------------------------------+

 Symmetry of operator:  A  ( 1)

               Column   1     Column   2     Column   3     Column   4     Column   5
       1       1.00000000     0.00000000     0.00000000     0.00000000     0.00000000
       2       0.00000000     1.00000000     0.00000000     0.00000000     0.00000000
       3       0.00000000     0.00000000     1.00000000     0.00000000     0.00000000
       4       0.00000000     0.00000000     0.00000000     1.00000000     0.00000000
       5       0.00000000     0.00000000     0.00000000     0.00000000     1.00000000
      10       0.00016413     0.00000000     0.00000000     0.08688880     0.00000000
      11       0.07086331     0.00000000     0.00000000     0.53311157     0.00000000

               Column   6     Column   7     Column   8     Column   9     Column  10
       1       0.00000000     0.00000000     0.00000000    -0.00000000     0.00003488
       4       0.00000000    -0.00000000     0.00000000     0.00000000     0.46277248
       6       1.00000000     0.00000000     0.00000000     0.00000000     0.00000000
       7       0.00000000     1.00000000     0.00000000     0.00000000     0.33800928
       8       0.00000000     0.00000000     1.00000000     0.00000000     0.00000000
       9       0.00000000     0.00000000     0.00000000     1.00000000     0.00000000
      10       0.00000000     0.01609611     0.00000000     0.00000000     1.00000000
      11       0.00000000     0.15228427     0.00000000     0.00000000     0.60623560

               Column  11
       1       0.00268027
       4       0.50540632
       7       0.56922200
      10       0.60623560
      11       1.00000000
    ==== End of matrix output ====


                           +---------------------------+
                           ! Integrals of operator: R2 !
                           +---------------------------+

 Symmetry of operator:  A  ( 1)

               Column   1     Column   2     Column   3     Column   4
       1       0.41963722
       2       0.00000000     5.38099641
       3       0.00000000     0.00000000     5.38099641
       4      -0.02011044     0.00000000     0.00000000     5.38099641
       6       0.00000000     0.00000000    -0.51173355     0.00000000
       7       0.00000000     0.00000000     0.00000000    -0.59089900
       8       0.00000000    -0.51173355     0.00000000     0.00000000
       9       0.00000000     0.00000000     0.00000000     0.00000000
      10       0.00002018     0.00000000     0.00000000     1.35005516
      11       0.01580018     0.00000000     0.00000000     2.65343691

               Column   5     Column   6     Column   7     Column   8
       5      28.35587145
       6       0.00000000    28.35587145
       7       0.00000000     0.00000000    28.35587145
       8       0.00000000     0.00000000     0.00000000    28.35587145
      10       0.00000000     0.00000000     1.24080388     0.00000000
      11       0.00000000     0.00000000     4.73160573     0.00000000

               Column   9     Column  10     Column  11
       9      28.35587145
      10      -0.00000000     5.90437004
      11       0.00000000     3.82167557     8.54875085
    ==== End of matrix output ====


                           +---------------------------+
                           ! Integrals of operator: R4 !
                           +---------------------------+

 Symmetry of operator:  A  ( 1)

               Column   1     Column   2     Column   3     Column   4
       1     2.343056E-01
       2     0.000000E+00   4.050166E+01
       3     0.000000E+00   0.000000E+00   4.050166E+01
       4    -2.767157E-02   0.000000E+00   0.000000E+00   4.292493E+01
       6     0.000000E+00   0.000000E+00  -1.192443E+01   0.000000E+00
       7     1.968140E-04   0.000000E+00   0.000000E+00  -1.376915E+01
       8     0.000000E+00  -1.192443E+01   0.000000E+00   0.000000E+00
      10     6.818989E-06   0.000000E+00   0.000000E+00   8.129373E+00
      11     1.038105E-02   0.000000E+00   0.000000E+00   2.040906E+01

               Column   5     Column   6     Column   7     Column   8
       5     1.033760E+03
       6     0.000000E+00   1.043315E+03
       7     0.000000E+00   0.000000E+00   1.046499E+03
       8     0.000000E+00   0.000000E+00   0.000000E+00   1.043315E+03
      10     0.000000E+00   0.000000E+00   1.024293E+01   0.000000E+00
      11     0.000000E+00   0.000000E+00   8.314332E+01   0.000000E+00

               Column   9     Column  10     Column  11
       9     1.033760E+03
      10     0.000000E+00   3.915098E+01
      11     0.000000E+00   2.866354E+01   1.028502E+02
    ==== End of matrix output ====


                         +--------------------------------+
                         ! Integrals of operator: XDIPLEN !
                         +--------------------------------+

 Symmetry of operator:  A  ( 1)

               Column   1     Column   2     Column   3     Column   4
       2       0.01842098     0.00000000
       5       0.00000000     0.00000000     0.46874319     0.00000000
       7       0.00000000    -0.27062901     0.00000000     0.00000000
       8       0.00000000     0.00000000     0.00000000     0.46874319
       9       0.00000000     0.46874319     0.00000000     0.00000000
      10       0.00000000     0.03674951     0.00000000     0.00000000
      11       0.00000000     0.39007813     0.00000000     0.00000000

               Column   5     Column   6     Column   7     Column   8
      10       0.00000000     0.00000000     0.00000000     0.04100621
      11       0.00000000     0.00000000     0.00000000     0.46939489

               Column   9     Column  10     Column  11
    ==== End of matrix output ====


                         +--------------------------------+
                         ! Integrals of operator: YDIPLEN !
                         +--------------------------------+

 Symmetry of operator:  A  ( 1)

               Column   1     Column   2     Column   3     Column   4
       3       0.01842098     0.00000000     0.00000000
       5       0.00000000     0.46874319     0.00000000     0.00000000
       6       0.00000000     0.00000000     0.00000000     0.46874319
       7       0.00000000     0.00000000    -0.27062901     0.00000000
       9       0.00000000     0.00000000    -0.46874319     0.00000000
      10       0.00000000     0.00000000     0.03674951     0.00000000
      11       0.00000000     0.00000000     0.39007813     0.00000000

               Column   5     Column   6     Column   7     Column   8
      10       0.00000000     0.04100621     0.00000000     0.00000000
      11       0.00000000     0.46939489     0.00000000     0.00000000

               Column   9     Column  10     Column  11
    ==== End of matrix output ====


                         +--------------------------------+
                         ! Integrals of operator: ZDIPLEN !
                         +--------------------------------+

 Symmetry of operator:  A  ( 1)

               Column   1     Column   2     Column   3     Column   4
       1      -0.54585705
       2       0.00000000    -0.54585705
       3       0.00000000     0.00000000    -0.54585705
       4       0.01842098     0.00000000     0.00000000    -0.54585705
       6       0.00000000     0.00000000     0.46874319     0.00000000
       7      -0.00000000     0.00000000     0.00000000     0.54125801
       8       0.00000000     0.46874319     0.00000000     0.00000000
      10      -0.00000453     0.00000000     0.00000000     0.54731911
      11      -0.01624617     0.00000000     0.00000000     0.82808278

               Column   5     Column   6     Column   7     Column   8
       5      -0.54585705
       6       0.00000000    -0.54585705
       7       0.00000000     0.00000000    -0.54585705
       8       0.00000000     0.00000000     0.00000000    -0.54585705
      10       0.00000000     0.00000000     0.43319816     0.00000000
      11       0.00000000     0.00000000     1.15763086     0.00000000

               Column   9     Column  10     Column  11
       9      -0.54585705
      10       0.00000000     2.30905705
      11       0.00000000     1.39983259     2.30905705
    ==== End of matrix output ====


                        +---------------------------------+
                        ! Integrals of operator: XXQUADRU !
                        +---------------------------------+

 Symmetry of operator:  A  ( 1)

               Column   1     Column   2     Column   3     Column   4
       1       0.09476953
       2       0.00000000     0.58279363
       3       0.00000000     0.00000000     1.09109728
       4      -0.00502761     0.00000000     0.00000000     1.09109728
       6       0.00000000     0.00000000    -0.12793339     0.00000000
       7       0.00002064     0.00000000     0.00000000    -0.14772475
       8       0.00000000    -0.12793339     0.00000000     0.00000000
       9      -0.00003575     0.00000000     0.00000000     0.00000000
      10       0.00000338     0.00000000     0.00000000     0.31543084
      11       0.00323151     0.00000000     0.00000000     0.52786795

               Column   5     Column   6     Column   7     Column   8
       5       4.08276306
       6       0.00000000     6.08689959
       7       0.00000000     0.00000000     5.41885408
       8       0.00000000     0.00000000     0.00000000     4.08276306
       9       0.00000000     0.00000000     1.15708877     0.00000000
      10       0.00000000     0.00000000     0.29486301     0.00000000
      11       0.00000000     0.00000000     1.08119840     0.00000000

               Column   9     Column  10     Column  11
       9       4.08276306
      10      -0.00137081     1.42837371
      11      -0.08815480     0.90630370     1.86910385
    ==== End of matrix output ====


                        +---------------------------------+
                        ! Integrals of operator: XYQUADRU !
                        +---------------------------------+

 Symmetry of operator:  A  ( 1)

               Column   1     Column   2     Column   3     Column   4
       3       0.00000000    -0.25415182     0.00000000
       5      -0.00003575     0.00000000     0.00000000     0.00000000
       6       0.00000000     0.00000000     0.00000000     0.00000000
       8       0.00000000     0.00000000     0.00000000     0.00000000

               Column   5     Column   6     Column   7     Column   8
       7       1.15708877     0.00000000     0.00000000
       8       0.00000000    -1.00206827     0.00000000     0.00000000
       9      -0.00000000     0.00000000     0.00000000     0.00000000
      10      -0.00137081     0.00000000     0.00000000     0.00000000
      11      -0.08815480     0.00000000     0.00000000     0.00000000

               Column   9     Column  10     Column  11
    ==== End of matrix output ====


                        +---------------------------------+
                        ! Integrals of operator: XZQUADRU !
                        +---------------------------------+

 Symmetry of operator:  A  ( 1)

               Column   1     Column   2     Column   3     Column   4
       2       0.00251381     0.00000000
       4       0.00000000    -0.25415182     0.00000000     0.00000000
       5       0.00000000     0.00000000     0.06396669     0.00000000
       7       0.00000000    -0.03693119     0.00000000     0.00000000
       8      -0.00003575     0.00000000     0.00000000     0.06396669
       9       0.00000000     0.06396669     0.00000000     0.00000000
      10       0.00000000    -0.01706795     0.00000000     0.00000000
      11       0.00000000    -0.08225955     0.00000000     0.00000000

               Column   5     Column   6     Column   7     Column   8
       6      -1.00206827     0.00000000
       8       0.00000000     0.00000000    -0.57854438     0.00000000
       9       0.00000000     0.00000000     0.00000000    -1.00206827
      10       0.00000000     0.00000000     0.00000000    -0.02371186
      11       0.00000000     0.00000000     0.00000000    -0.28840880

               Column   9     Column  10     Column  11
    ==== End of matrix output ====


                        +---------------------------------+
                        ! Integrals of operator: YYQUADRU !
                        +---------------------------------+

 Symmetry of operator:  A  ( 1)

               Column   1     Column   2     Column   3     Column   4
       1       0.09476953
       2       0.00000000     1.09109728
       3       0.00000000     0.00000000     0.58279363
       4      -0.00502761     0.00000000     0.00000000     1.09109728
       6       0.00000000     0.00000000    -0.12793339     0.00000000
       7       0.00002064     0.00000000     0.00000000    -0.14772475
       8       0.00000000    -0.12793339     0.00000000     0.00000000
       9       0.00003575     0.00000000     0.00000000    -0.00000000
      10       0.00000338     0.00000000     0.00000000     0.31543084
      11       0.00323151     0.00000000     0.00000000     0.52786795

               Column   5     Column   6     Column   7     Column   8
       5       4.08276306
       6       0.00000000     4.08276306
       7       0.00000000     0.00000000     5.41885408
       8       0.00000000     0.00000000     0.00000000     6.08689959
       9       0.00000000     0.00000000    -1.15708877     0.00000000
      10       0.00000000     0.00000000     0.29486301     0.00000000
      11       0.00000000     0.00000000     1.08119840     0.00000000

               Column   9     Column  10     Column  11
       9       4.08276306
      10       0.00137081     1.42837371
      11       0.08815480     0.90630370     1.86910385
    ==== End of matrix output ====


                        +---------------------------------+
                        ! Integrals of operator: YZQUADRU !
                        +---------------------------------+

 Symmetry of operator:  A  ( 1)

               Column   1     Column   2     Column   3     Column   4
       3       0.00251381     0.00000000     0.00000000
       4       0.00000000     0.00000000    -0.25415182     0.00000000
       5       0.00000000     0.06396669     0.00000000     0.00000000
       6      -0.00003575     0.00000000     0.00000000     0.06396669
       7       0.00000000     0.00000000    -0.03693119     0.00000000
       9       0.00000000     0.00000000    -0.06396669     0.00000000
      10       0.00000000     0.00000000    -0.01706795     0.00000000
      11       0.00000000     0.00000000    -0.08225955     0.00000000

               Column   5     Column   6     Column   7     Column   8
       7       0.00000000    -0.57854438     0.00000000
       8      -1.00206827     0.00000000     0.00000000     0.00000000
       9       0.00000000     1.00206827     0.00000000     0.00000000
      10       0.00000000    -0.02371186     0.00000000     0.00000000
      11       0.00000000    -0.28840880     0.00000000     0.00000000

               Column   9     Column  10     Column  11
    ==== End of matrix output ====


                        +---------------------------------+
                        ! Integrals of operator: ZZQUADRU !
                        +---------------------------------+

 Symmetry of operator:  A  ( 1)

               Column   1     Column   2     Column   3     Column   4
       1       0.02027955
       2       0.00000000     1.01660730
       3       0.00000000     0.00000000     1.01660730
       4       0.00000000     0.00000000     0.00000000     0.50830365
       6       0.00000000     0.00000000    -0.00000000     0.00000000
       7      -0.00004128     0.00000000     0.00000000    -0.00000000
       8       0.00000000    -0.00000000     0.00000000     0.00000000
       9      -0.00000000     0.00000000     0.00000000     0.00000000
      10       0.00000333     0.00000000     0.00000000     0.04416589
      11       0.00143708     0.00000000     0.00000000     0.27098256

               Column   5     Column   6     Column   7     Column   8
       5       6.01240961
       6       0.00000000     4.00827308
       7       0.00000000     0.00000000     3.34022756
       8       0.00000000     0.00000000     0.00000000     4.00827308
       9       0.00000000     0.00000000    -0.00000000     0.00000000
      10       0.00000000     0.00000000     0.03067592     0.00000000
      11       0.00000000     0.00000000     0.20340607     0.00000000

               Column   9     Column  10     Column  11
       9       6.01240961
      10       0.00000000     0.09543759
      11       0.00000000     0.09823038     0.53616773
    ==== End of matrix output ====


                        +---------------------------------+
                        ! Integrals of operator: KINENERG !
                        +---------------------------------+

 Symmetry of operator:  A  ( 1)

               Column   1     Column   2     Column   3     Column   4
       1       9.24576750
       2       0.00000000     0.61479000
       3       0.00000000     0.00000000     0.61479000
       4      -0.00000000     0.00000000     0.00000000     0.61479000
       6       0.00000000     0.00000000     0.00000000     0.00000000
       7      -0.00000000     0.00000000     0.00000000     0.00000000
       8       0.00000000     0.00000000     0.00000000     0.00000000
      10      -0.00157024     0.00000000     0.00000000     0.09246441
      11      -0.00546725     0.00000000     0.00000000     0.18948403

               Column   5     Column   6     Column   7     Column   8
       5       0.21829850
       6       0.00000000     0.21829850
       7       0.00000000     0.00000000     0.21829850
       8       0.00000000     0.00000000     0.00000000     0.21829850
      10       0.00000000     0.00000000     0.06355690     0.00000000
      11       0.00000000     0.00000000     0.11002146     0.00000000

               Column   9     Column  10     Column  11
       9       0.21829850
      10       0.00000000     1.96463460
      11       0.00000000     0.35993736     0.34970400
    ==== End of matrix output ====


                        +---------------------------------+
                        ! Integrals of operator: POT.E Li !
                        +---------------------------------+

 Symmetry of operator:  A  ( 1)

               Column   1     Column   2     Column   3     Column   4
       1      -3.96183069
       2       0.00000000    -0.52756040
       3       0.00000000     0.00000000    -0.52756040
       4      -0.00000000     0.00000000     0.00000000    -0.52756040
       6       0.00000000     0.00000000     0.00000000     0.00000000
       7      -0.00000000     0.00000000     0.00000000     0.00000000
       8       0.00000000     0.00000000     0.00000000     0.00000000
       9       0.00000000     0.00000000     0.00000000     0.00000000
      10      -0.00018832     0.00000000     0.00000000    -0.10797974
      11      -0.10257094     0.00000000     0.00000000    -0.22878809

               Column   5     Column   6     Column   7     Column   8
       5      -0.21254952
       6       0.00000000    -0.21254952
       7       0.00000000     0.00000000    -0.21254952
       8       0.00000000     0.00000000     0.00000000    -0.21254952
       9       0.00000000     0.00000000     0.00000000     0.00000000
      10       0.00000000     0.00000000    -0.05906346     0.00000000
      11       0.00000000     0.00000000    -0.09786846     0.00000000

               Column   9     Column  10     Column  11
       9      -0.21254952
      10       0.00000000    -0.35027324
      11       0.00000000    -0.21234799    -0.34822958
    ==== End of matrix output ====


                         +--------------------------------+
                         ! Integrals of operator: POT.E H !
                         +--------------------------------+

 Symmetry of operator:  A  ( 1)

               Column   1     Column   2     Column   3     Column   4
       1      -0.35027324
       2       0.00000000    -0.30695578
       3       0.00000000     0.00000000    -0.30695578
       4      -0.00226009     0.00000000     0.00000000    -0.41767121
       6       0.00000000     0.00000000    -0.02757683     0.00000000
       7      -0.00001065     0.00000000     0.00000000    -0.06585062
       8       0.00000000    -0.02757683     0.00000000     0.00000000
       9       0.00000000     0.00000000     0.00000000     0.00000000
      10      -0.00004226     0.00000000     0.00000000    -0.36963642
      11      -0.01336734     0.00000000     0.00000000    -0.38048231

               Column   5     Column   6     Column   7     Column   8
       5      -0.18620140
       6       0.00000000    -0.21314824
       7       0.00000000     0.00000000    -0.24902891
       8       0.00000000     0.00000000     0.00000000    -0.21314824
      10       0.00000000     0.00000000    -0.23966253     0.00000000
      11       0.00000000     0.00000000    -0.25357292     0.00000000

               Column   9     Column  10     Column  11
       9      -0.18620140
      10       0.00000000    -1.82627142
      11       0.00000000    -0.84969745    -0.77050370
    ==== End of matrix output ====
  Total CPU  time used in HERMIT:   0.01 seconds
  Total wall time used in HERMIT:   0.10 seconds


                        .----------------------------------.
                        | End of Integral Section (HERMIT) |
                        `----------------------------------'



                   .--------------------------------------------.
                   | Starting in Wave Function Section (SIRIUS) |
                   `--------------------------------------------'


 *** Output from Huckel module :

     Using EWMO model:          T
     Using EHT  model:          F
     Number of Huckel orbitals each symmetry:    6

 EWMO - Energy Weighted Maximum Overlap - is a Huckel type method,
        which normally is better than Extended Huckel Theory.
 Reference: Linderberg and Ohrn, Propagators in Quantum Chemistry (Wiley, 1973)

 Huckel EWMO eigenvalues for symmetry :  1
           -2.485503      -0.581285      -0.168513      -0.130000      -0.130000
           -0.068699

 **********************************************************************
 *SIRIUS* a direct, restricted step, second order MCSCF program       *
 **********************************************************************

 
     Date and time (Linux)  : Wed Nov 30 14:44:04 2022
     Host name              : nodo8                                   

 Title lines from ".mol" input file:
     LiH                                                                     
     opt HF/STO-1G                                                           

 Print level on unit LUPRI =   2 is   0
 Print level on unit LUW4  =   2 is   5

@    Restricted, closed shell Hartree-Fock calculation.

 Initial molecular orbitals are obtained according to
 ".MOSTART EWMO  " input option

     Wave function specification
     ============================
@    Wave function type        --- HF ---
@    Number of closed shell electrons           4
@    Number of electrons in active shells       0
@    Total charge of the molecule               0

@    Spin multiplicity and 2 M_S                1         0
@    Total number of symmetries                 1 (point group: C1 )
@    Reference state symmetry                   1 (irrep name : A  )

     Orbital specifications
     ======================
@    Abelian symmetry species          All |    1
@                                          |  A  
                                       --- |  ---
@    Occupied SCF orbitals               2 |    2
@    Secondary orbitals                  9 |    9
@    Total number of orbitals           11 |   11
@    Number of basis functions          11 |   11

     Optimization information
     ========================
@    Number of configurations                 1
@    Number of orbital rotations             18
     ------------------------------------------
@    Total number of variables               19

     Maximum number of Fock   iterations      0
     Maximum number of DIIS   iterations     60
     Maximum number of QC-SCF iterations     60
     Threshold for SCF convergence     1.00D-05


 ***********************************************
 ***** DIIS acceleration of SCF iterations *****
 ***********************************************

 C1-DIIS algorithm; max error vectors =    8

 Iter      Total energy        Error norm    Delta(E)  DIIS dim.
 -----------------------------------------------------------------------------

Calculating AOSUPINT

---> (Re)generating AOTWOINT


     ************************************************************************
     ************************** Output from HERINT **************************
     ************************************************************************


 Threshold for neglecting two-electron integrals:  1.00D-12
 HERMIT - Number of two-electron integrals written:         464 ( 21.0% )
 HERMIT - Megabytes written:                              0.007

     (Precalculated AO two-electron integrals are transformed to P-supermatrix elements.
      Threshold for discarding integrals :  1.00D-12 )
@  1    -3.26855306147        1.08150D+00   -3.27D+00    1
      Virial theorem: -V/T =      1.172198
@    MULPOP   Li      1.13; H      -1.13; 
   1  Level shift: doubly occupied orbital energies shifted by -2.00D-01
 -----------------------------------------------------------------------------
@  2    -3.49769506319        1.63257D+00   -2.29D-01    2
      Virial theorem: -V/T =      1.365534
@    MULPOP   Li      0.86; H      -0.86; 
   2  Level shift: doubly occupied orbital energies shifted by -2.00D-01
 -----------------------------------------------------------------------------
@  3    -3.66846603826        8.01643D-01   -1.71D-01    3
      Virial theorem: -V/T =      1.319284
@    MULPOP   Li      0.73; H      -0.73; 
   3  Level shift: doubly occupied orbital energies shifted by -1.00D-01
 -----------------------------------------------------------------------------
@  4    -3.74429809533        1.49725D-01   -7.58D-02    4
      Virial theorem: -V/T =      1.290302
@    MULPOP   Li      0.60; H      -0.60; 
   4  Level shift: doubly occupied orbital energies shifted by -2.50D-02
 -----------------------------------------------------------------------------
@  5    -3.75336765396        6.14698D-02   -9.07D-03    5
      Virial theorem: -V/T =      1.288444
@    MULPOP   Li      0.61; H      -0.61; 
   5  Level shift: doubly occupied orbital energies shifted by -1.25D-02
 -----------------------------------------------------------------------------
@  6    -3.75527021204        1.19582D-02   -1.90D-03    6
      Virial theorem: -V/T =      1.290789
@    MULPOP   Li      0.63; H      -0.63; 
 -----------------------------------------------------------------------------
@  7    -3.75528303507        3.16844D-03   -1.28D-05    7
      Virial theorem: -V/T =      1.290255
@    MULPOP   Li      0.63; H      -0.63; 
 -----------------------------------------------------------------------------
@  8    -3.75528426492        7.33648D-04   -1.23D-06    8
      Virial theorem: -V/T =      1.290061
@    MULPOP   Li      0.63; H      -0.63; 
 -----------------------------------------------------------------------------
@  9    -3.75528432293        4.88272D-05   -5.80D-08    8
      Virial theorem: -V/T =      1.290102
@    MULPOP   Li      0.63; H      -0.63; 
 -----------------------------------------------------------------------------
@ 10    -3.75528432360        6.50673D-06   -6.62D-10    8

@ *** DIIS converged in  10 iterations !
@     Converged SCF energy, gradient:     -3.755284323596    6.51D-06
    - total time used in SIRFCK :              0.00 seconds
 Matriz G    
 2.9281851389416436        
 1.1438623186882409E-016   1.5642070762961937
 -1.9845011334165518E-016   1.2835582530850891E-031   1.5642070762961937
  0.14922436986595969       -7.9326519605695947E-017   1.3767303386353730E-016   1.4036416276188854 
  6.5769868765144134E-034  9.9485998063674452E-019  -5.7343522009590077E-019   0.0000000000000000       0.79267088998538893
  7.0544031390399742E-019  -1.3816381654353300E-048   3.3054032135784679E-002   9.9485998063674298E-019   6.8177973321226206E-018   0.83164444844678476 
  7.1814420108775468E-003   -2.0140438606768510E-017   3.4946576913822137E-017  -3.0681126061398216E-002   1.2738275532945368E-032  -6.8314664901071785E-018  0.81932177592879751 
 -4.0647121169002342E-019   3.3054032135784679E-002 -4.1621716342442453E-049  -3.6408721282424151E-018  -1.1832447051069857E-017  -1.1031670211936457E-032   3.9362571249813069E-018  0.83164444844678465
  3.8128283163597465E-034  -1.5923764509780452E-018  -2.7628667121935725E-018  -1.2549918054453335E-049   0.0000000000000000        1.1832447051069852E-017   7.3846669554777270E-033   6.8177973321226160E-018   0.79267088998538870
 -1.6697938130774977E-002  -7.4225203592240479E-017   1.2882316835304836E-016  0.30991310743793932        4.8667207072783913E-034  1.0950789178362567E-017  0.21454831597882221       -6.3092826145265251E-018   2.8213482661469806E-034   1.6819524318396606
  6.1215064709702297E-002  -9.8678198777833662E-017   1.7134026940235379E-016  0.65828018760630336        1.4860717693350411E-033  3.5476307364726959E-018  0.38985728113423196       -2.0447781316068871E-018   8.6150947670224471E-034  0.78881597903804757        1.1994428492036275     


 *** SCF orbital energy analysis ***

 Number of electrons :    4
 Orbital occupations :    2

 Sym       Hartree-Fock orbital energies

1 A      -0.48297038    -0.20688349     0.18711942     0.18711942     0.18859689
          0.19881481     0.19881481     0.28969141     0.28969141     0.56085639
          1.78022744

    E(LUMO) :     0.18711942 au (symmetry 1)
  - E(HOMO) :    -0.20688349 au (symmetry 1)
  ------------------------------------------
    gap     :     0.39400291 au

 --- Writing SIRIFC interface file

 CPU and wall time for SCF :       0.008       0.105


                       .-----------------------------------.
                       | --- Final results from SIRIUS --- |
                       `-----------------------------------'


@    Spin multiplicity:           1
@    Spatial symmetry:            1 ( irrep  A   in C1  )
@    Total charge of molecule:    0

@    Final HF energy:              -3.755284323596                 
@    Nuclear repulsion:             1.050819706153
@    Electronic energy:            -4.806104029749

@    Final gradient norm:           0.000006506727

 
     Date and time (Linux)  : Wed Nov 30 14:44:04 2022
     Host name              : nodo8                                   

File label for MO orbitals:  30Nov22   FOCKDIIS

 (Only coefficients > 0.0100 are printed.)

 Molecular orbitals for symmetry species 1  (A  )
 ------------------------------------------------

    Orbital         1        2        3        4        5        6        7
   1 Li  :1s    -0.6445  -0.4613   0.0000   0.0000   0.0840   0.0000  -0.0000
   2 Li  :2px    0.0000   0.0000   0.0000   0.0000   0.0000  -0.0604   0.0000
   3 Li  :2py   -0.0000  -0.0000   0.0000   0.0000  -0.0000  -0.0000  -0.0604
   4 Li  :2pz    0.2938   0.6744   0.0000   0.0000  -0.2258   0.0000  -0.0000
   5 Li  :3d2-   0.0000   0.0000   0.0000   1.0000   0.0000   0.0000   0.0000
   6 Li  :3d1-   0.0000   0.0000   0.0000   0.0000  -0.0000   0.0000   0.9982
   7 Li  :3d0    0.2357   0.2403   0.0000   0.0000   0.9980   0.0000  -0.0000
   8 Li  :3d1+  -0.0000  -0.0000   0.0000   0.0000   0.0000   0.9982  -0.0000
   9 Li  :3d2+   0.0000   0.0000   1.0000   0.0000   0.0000   0.0000   0.0000
  10 H   :1s     0.0045   0.2035   0.0000   0.0000   0.0290   0.0000  -0.0000
  11 H   :1s    -0.9155   0.1167   0.0000   0.0000  -0.1749  -0.0000   0.0000

    Orbital         8        9       10       11
   1 Li  :1s     0.0000  -0.0000   0.5843  -0.1627
   2 Li  :2px   -0.9982   0.0046   0.0000  -0.0000
   3 Li  :2py   -0.0046  -0.9982  -0.0000   0.0000
   4 Li  :2pz    0.0000  -0.0000   0.9278  -0.0737
   6 Li  :3d1-  -0.0003  -0.0604   0.0000  -0.0000
   7 Li  :3d0    0.0000  -0.0000   0.3346  -0.0500
   8 Li  :3d1+  -0.0604   0.0003   0.0000   0.0000
  10 H   :1s     0.0000  -0.0000  -0.1175  -1.2411
  11 H   :1s    -0.0000   0.0000  -0.7794   0.9439

  Total CPU  time used in SIRIUS :   0.01 seconds
  Total wall time used in SIRIUS :   0.13 seconds

 
     Date and time (Linux)  : Wed Nov 30 14:44:04 2022
     Host name              : nodo8                                   


                     .---------------------------------------.
                     | End of Wave Function Section (SIRIUS) |
                     `---------------------------------------'

  Total CPU  time used in DALTON:   0.03 seconds
  Total wall time used in DALTON:   0.30 seconds

 
     Date and time (Linux)  : Wed Nov 30 14:44:04 2022
     Host name              : nodo8                                   
