[Molden Format]
[GTO]
    1 0
 s   1 1.00
       0.3097564    1.0000000000
 p   1 1.00
       1.3097564    1.0000000000
 d   1 1.00
       2.3097564    1.0000000000
 f   1 1.00
       3.3097564    1.0000000000
 g   1 1.00
       4.3097564    1.0000000000
 h   1 1.00
       5.3097564    1.0000000000
 i   1 1.00
       6.3097564    1.0000000000

    2 0
 s   1 1.00
       0.3097564    1.0000000000
 p   1 1.00
       1.3097564    1.0000000000
 d   1 1.00
       2.3097564    1.0000000000
 f   1 1.00
       3.3097564    1.0000000000
 g   1 1.00
       4.3097564    1.0000000000
 h   1 1.00
       5.3097564    1.0000000000
 i   1 1.00
       6.3097564    1.0000000000

[SCFCONV]
scf-first  1  THROUGH   6
       -0.8577108854
       -1.0009777353
       -1.0015991831
       -1.0016040348
       -1.0016040529
       -1.0016040529
[TITLE]
*** Dalton interface to Molden, wave function type : HF            30May22   13:
[Atoms] AU
H          1     1         0.0000000000         0.0000000000         0.058647641
H          2     1         0.0000000000         0.0000000000         1.404552358
[End of Molden output from Dalton]
