[Molden Format]
[GTO]
    1 0
 s   2 1.00
       1.2331360    1.0000000000
       0.2331360    0.0000000000
 s   2 1.00
       1.2331360    0.0000000000
       0.2331360    1.0000000000
 p   1 1.00
       2.3097564    1.0000000000

    2 0
 s   2 1.00
       1.2331360    1.0000000000
       0.2331360    0.0000000000
 s   2 1.00
       1.2331360    0.0000000000
       0.2331360    1.0000000000
 p   1 1.00
       2.3097564    1.0000000000

*** Dalton interface to Molden, wave function type :
HF          10Jun22   15:46:20
[Atoms] AU
H          1     1         0.0000000000         0.0000000000         0.058647641
H          2     1         0.0000000000         0.0000000000         1.404552358
[5D7F]
[9G]
[MO]
Sym= A
 Ene=  -0.58512347449916913
Spin= Alpha
Occup=  2.0000
    1        0.2182186771736492
    2        0.3782574079427606
    3        0.0000000000000000
    4        0.0000000000000000
    5        0.0096029739549827
    6        0.2182186771736493
    7        0.3782574079427600
    8        0.0000000000000000
    9        0.0000000000000000
   10       -0.0096029739549824
Sym= A
 Ene=   0.33338025702226004
Spin= Alpha
Occup=  0.0000
    1       -0.0779139251124847
    2       -1.5384107056665064
    3        0.0000000000000000
    4        0.0000000000000000
    5        0.0014764980567672
    6        0.0779139251124854
    7        1.5384107056665060
    8        0.0000000000000000
    9        0.0000000000000000
   10        0.0014764980567672
Sym= A
 Ene=    1.2533313484829112
Spin= Alpha
Occup=  0.0000
    1        0.8031106628054708
    2       -0.6121940698230139
    3        0.0000000000000000
    4        0.0000000000000000
    5        0.0296530656871442
    6        0.8031106628054728
    7       -0.6121940698230168
    8        0.0000000000000000
    9        0.0000000000000000
   10       -0.0296530656871443
Sym= A
 Ene=    1.8961616120532114
Spin= Alpha
Occup=  0.0000
    1        0.9887305642495948
    2       -1.1236605574573402
    3        0.0000000000000000
    4        0.0000000000000000
    5       -0.0452937658601475
    6       -0.9887305642495932
    7        1.1236605574573388
    8        0.0000000000000000
    9        0.0000000000000000
   10       -0.0452937658601474
Sym= A
 Ene=    4.3988976944190448
Spin= Alpha
Occup=  0.0000
    1        0.0000000000000000
    2        0.0000000000000000
    3        0.6671299208373652
    4        0.0000000000000000
    5        0.0000000000000000
    6        0.0000000000000000
    7        0.0000000000000000
    8        0.6671299208373652
    9        0.0000000000000000
   10        0.0000000000000000
Sym= A
 Ene=    4.3988976944190448
Spin= Alpha
Occup=  0.0000
    1        0.0000000000000000
    2        0.0000000000000000
    3        0.0000000000000000
    4        0.6671299208373652
    5        0.0000000000000000
    6        0.0000000000000000
    7        0.0000000000000000
    8        0.0000000000000000
    9        0.6671299208373652
   10        0.0000000000000000
Sym= A
 Ene=    4.6192765418348838
Spin= Alpha
Occup=  0.0000
    1        0.2564911816462184
    2       -0.1112234594024083
    3        0.0000000000000000
    4        0.0000000000000000
    5       -0.6188853919089122
    6        0.2564911816462191
    7       -0.1112234594024094
    8        0.0000000000000000
    9        0.0000000000000000
   10        0.6188853919089121
Sym= A
 Ene=    5.6229286218871906
Spin= Alpha
Occup=  0.0000
    1        0.0000000000000000
    2        0.0000000000000000
    3       -0.7552551900555600
    4        0.0000000000000000
    5        0.0000000000000000
    6        0.0000000000000000
    7        0.0000000000000000
    8        0.7552551900555600
    9        0.0000000000000000
   10        0.0000000000000000
Sym= A
 Ene=    5.6229286218871906
Spin= Alpha
Occup=  0.0000
    1        0.0000000000000000
    2        0.0000000000000000
    3        0.0000000000000000
    4       -0.7552551900555600
    5        0.0000000000000000
    6        0.0000000000000000
    7        0.0000000000000000
    8        0.0000000000000000
    9        0.7552551900555600
   10        0.0000000000000000
Sym= A
 Ene=    7.8541950642374552
Spin= Alpha
Occup=  0.0000
    1       -0.4666885383529186
    2       -0.1513439595686697
    3        0.0000000000000000
    4        0.0000000000000000
    5       -1.0411688747762569
    6        0.4666885383529187
    7        0.1513439595686697
    8        0.0000000000000000
    9        0.0000000000000000
   10       -1.0411688747762566
