[Molden Format]
[GTO]
    1 0
 s   1 1.00
       0.3097564    1.0000000000
 p   1 1.00
       1.3097564    1.0000000000
 d   1 1.00
       2.3097564    1.0000000000

    2 0
 s   1 1.00
       0.3097564    1.0000000000
 p   1 1.00
       1.3097564    1.0000000000
 d   1 1.00
       2.3097564    1.0000000000

[SCFCONV]
scf-first  1  THROUGH   5
       -0.9566371077
       -0.9679827972
       -0.9681962589
       -0.9681967802
       -0.9681967802
[TITLE]
*** Dalton interface to Molden, wave function type : HF            29May22   10:
[Atoms] AU
H          1     1         0.0000000000         0.0000000000         0.058647641
H          2     1         0.0000000000         0.0000000000         1.404552358
[End of Molden output from Dalton]
