[Molden Format]
[GTO]
    1 0
 s  12 1.00
    8588.5000000    1.0000000000
    1297.2300000    0.0000000000
     299.2960000    0.0000000000
      87.3771000    0.0000000000
      42.1175000    0.0000000000
      25.6789000    0.0000000000
       9.6283700    0.0000000000
       3.7400400    0.0000000000
       2.8533200    0.0000000000
       0.9056610    0.0000000000
       0.2556110    0.0000000000
       0.0845000    0.0000000000
 s  12 1.00
    8588.5000000    0.0000000000
    1297.2300000    1.0000000000
     299.2960000    0.0000000000
      87.3771000    0.0000000000
      42.1175000    0.0000000000
      25.6789000    0.0000000000
       9.6283700    0.0000000000
       3.7400400    0.0000000000
       2.8533200    0.0000000000
       0.9056610    0.0000000000
       0.2556110    0.0000000000
       0.0845000    0.0000000000
 s  12 1.00
    8588.5000000    0.0000000000
    1297.2300000    0.0000000000
     299.2960000    1.0000000000
      87.3771000    0.0000000000
      42.1175000    0.0000000000
      25.6789000    0.0000000000
       9.6283700    0.0000000000
       3.7400400    0.0000000000
       2.8533200    0.0000000000
       0.9056610    0.0000000000
       0.2556110    0.0000000000
       0.0845000    0.0000000000
 s  12 1.00
    8588.5000000    0.0000000000
    1297.2300000    0.0000000000
     299.2960000    0.0000000000
      87.3771000    1.0000000000
      42.1175000    0.0000000000
      25.6789000    0.0000000000
       9.6283700    0.0000000000
       3.7400400    0.0000000000
       2.8533200    0.0000000000
       0.9056610    0.0000000000
       0.2556110    0.0000000000
       0.0845000    0.0000000000
 s  12 1.00
    8588.5000000    0.0000000000
    1297.2300000    0.0000000000
     299.2960000    0.0000000000
      87.3771000    0.0000000000
      42.1175000    1.0000000000
      25.6789000    0.0000000000
       9.6283700    0.0000000000
       3.7400400    0.0000000000
       2.8533200    0.0000000000
       0.9056610    0.0000000000
       0.2556110    0.0000000000
       0.0845000    0.0000000000
 s  12 1.00
    8588.5000000    0.0000000000
    1297.2300000    0.0000000000
     299.2960000    0.0000000000
      87.3771000    0.0000000000
      42.1175000    0.0000000000
      25.6789000    1.0000000000
       9.6283700    0.0000000000
       3.7400400    0.0000000000
       2.8533200    0.0000000000
       0.9056610    0.0000000000
       0.2556110    0.0000000000
       0.0845000    0.0000000000
 s  12 1.00
    8588.5000000    0.0000000000
    1297.2300000    0.0000000000
     299.2960000    0.0000000000
      87.3771000    0.0000000000
      42.1175000    0.0000000000
      25.6789000    0.0000000000
       9.6283700    1.0000000000
       3.7400400    0.0000000000
       2.8533200    0.0000000000
       0.9056610    0.0000000000
       0.2556110    0.0000000000
       0.0845000    0.0000000000
 s  12 1.00
    8588.5000000    0.0000000000
    1297.2300000    0.0000000000
     299.2960000    0.0000000000
      87.3771000    0.0000000000
      42.1175000    0.0000000000
      25.6789000    0.0000000000
       9.6283700    0.0000000000
       3.7400400    1.0000000000
       2.8533200    0.0000000000
       0.9056610    0.0000000000
       0.2556110    0.0000000000
       0.0845000    0.0000000000
 s  12 1.00
    8588.5000000    0.0000000000
    1297.2300000    0.0000000000
     299.2960000    0.0000000000
      87.3771000    0.0000000000
      42.1175000    0.0000000000
      25.6789000    0.0000000000
       9.6283700    0.0000000000
       3.7400400    0.0000000000
       2.8533200    1.0000000000
       0.9056610    0.0000000000
       0.2556110    0.0000000000
       0.0845000    0.0000000000
 s  12 1.00
    8588.5000000    0.0000000000
    1297.2300000    0.0000000000
     299.2960000    0.0000000000
      87.3771000    0.0000000000
      42.1175000    0.0000000000
      25.6789000    0.0000000000
       9.6283700    0.0000000000
       3.7400400    0.0000000000
       2.8533200    0.0000000000
       0.9056610    1.0000000000
       0.2556110    0.0000000000
       0.0845000    0.0000000000
 s  12 1.00
    8588.5000000    0.0000000000
    1297.2300000    0.0000000000
     299.2960000    0.0000000000
      87.3771000    0.0000000000
      42.1175000    0.0000000000
      25.6789000    0.0000000000
       9.6283700    0.0000000000
       3.7400400    0.0000000000
       2.8533200    0.0000000000
       0.9056610    0.0000000000
       0.2556110    1.0000000000
       0.0845000    0.0000000000
 s  12 1.00
    8588.5000000    0.0000000000
    1297.2300000    0.0000000000
     299.2960000    0.0000000000
      87.3771000    0.0000000000
      42.1175000    0.0000000000
      25.6789000    0.0000000000
       9.6283700    0.0000000000
       3.7400400    0.0000000000
       2.8533200    0.0000000000
       0.9056610    0.0000000000
       0.2556110    0.0000000000
       0.0845000    1.0000000000
 p   6 1.00
      42.1175000    1.0000000000
       9.6283700    0.0000000000
       2.8533200    0.0000000000
       0.9056610    0.0000000000
       0.2556110    0.0000000000
       0.0845000    0.0000000000
 p   6 1.00
      42.1175000    0.0000000000
       9.6283700    1.0000000000
       2.8533200    0.0000000000
       0.9056610    0.0000000000
       0.2556110    0.0000000000
       0.0845000    0.0000000000
 p   6 1.00
      42.1175000    0.0000000000
       9.6283700    0.0000000000
       2.8533200    1.0000000000
       0.9056610    0.0000000000
       0.2556110    0.0000000000
       0.0845000    0.0000000000
 p   6 1.00
      42.1175000    0.0000000000
       9.6283700    0.0000000000
       2.8533200    0.0000000000
       0.9056610    1.0000000000
       0.2556110    0.0000000000
       0.0845000    0.0000000000
 p   6 1.00
      42.1175000    0.0000000000
       9.6283700    0.0000000000
       2.8533200    0.0000000000
       0.9056610    0.0000000000
       0.2556110    1.0000000000
       0.0845000    0.0000000000
 p   6 1.00
      42.1175000    0.0000000000
       9.6283700    0.0000000000
       2.8533200    0.0000000000
       0.9056610    0.0000000000
       0.2556110    0.0000000000
       0.0845000    1.0000000000
 d   1 1.00
       1.2920000    1.0000000000

    2 0
 s   6 1.00
      33.8650000    1.0000000000
       5.0947900    0.0000000000
       1.1587900    0.0000000000
       0.3258400    0.0000000000
       0.1027410    0.0000000000
       0.0360000    0.0000000000
 s   6 1.00
      33.8650000    0.0000000000
       5.0947900    1.0000000000
       1.1587900    0.0000000000
       0.3258400    0.0000000000
       0.1027410    0.0000000000
       0.0360000    0.0000000000
 s   6 1.00
      33.8650000    0.0000000000
       5.0947900    0.0000000000
       1.1587900    1.0000000000
       0.3258400    0.0000000000
       0.1027410    0.0000000000
       0.0360000    0.0000000000
 s   6 1.00
      33.8650000    0.0000000000
       5.0947900    0.0000000000
       1.1587900    0.0000000000
       0.3258400    1.0000000000
       0.1027410    0.0000000000
       0.0360000    0.0000000000
 s   6 1.00
      33.8650000    0.0000000000
       5.0947900    0.0000000000
       1.1587900    0.0000000000
       0.3258400    0.0000000000
       0.1027410    1.0000000000
       0.0360000    0.0000000000
 s   6 1.00
      33.8650000    0.0000000000
       5.0947900    0.0000000000
       1.1587900    0.0000000000
       0.3258400    0.0000000000
       0.1027410    0.0000000000
       0.0360000    1.0000000000
 p   1 1.00
       0.7500000    1.0000000000

    3 0
 s   6 1.00
      33.8650000    1.0000000000
       5.0947900    0.0000000000
       1.1587900    0.0000000000
       0.3258400    0.0000000000
       0.1027410    0.0000000000
       0.0360000    0.0000000000
 s   6 1.00
      33.8650000    0.0000000000
       5.0947900    1.0000000000
       1.1587900    0.0000000000
       0.3258400    0.0000000000
       0.1027410    0.0000000000
       0.0360000    0.0000000000
 s   6 1.00
      33.8650000    0.0000000000
       5.0947900    0.0000000000
       1.1587900    1.0000000000
       0.3258400    0.0000000000
       0.1027410    0.0000000000
       0.0360000    0.0000000000
 s   6 1.00
      33.8650000    0.0000000000
       5.0947900    0.0000000000
       1.1587900    0.0000000000
       0.3258400    1.0000000000
       0.1027410    0.0000000000
       0.0360000    0.0000000000
 s   6 1.00
      33.8650000    0.0000000000
       5.0947900    0.0000000000
       1.1587900    0.0000000000
       0.3258400    0.0000000000
       0.1027410    1.0000000000
       0.0360000    0.0000000000
 s   6 1.00
      33.8650000    0.0000000000
       5.0947900    0.0000000000
       1.1587900    0.0000000000
       0.3258400    0.0000000000
       0.1027410    0.0000000000
       0.0360000    1.0000000000
 p   1 1.00
       0.7500000    1.0000000000

[SCFCONV]
scf-first  1  THROUGH  10
      -75.8709033535
      -76.0420448178
      -76.0519574511
      -76.0530646717
      -76.0532042166
      -76.0532227135
      -76.0532238942
      -76.0532239236
      -76.0532239242
      -76.0532239242
[TITLE]
*** Dalton interface to Molden, wave function type : HF            28May22   16:
[Atoms] AU
O          1     8         0.0000000000         0.0000000000         0.222590840
H          2     1         0.0000000000         1.4275936011        -0.890363361
H          3     1         0.0000000000        -1.4275936011        -0.890363361
[5D7F]
[9G]
[MO]
Sym= A
Ene=  -20.5663
Spin= Alpha
Occup=  2.0000
    1       -0.001045
    2       -0.007931
    3       -0.039004
    4       -0.131967
    5       -0.055555
    6       -0.325689
    7       -0.435967
    8       -0.149793
    9       -0.003718
   10       -0.004065
   11       -0.000095
   12       -0.000135
   15        0.000132
   18        0.001036
   21        0.000584
   24       -0.000091
   27       -0.000019
   30        0.000027
   31        0.000010
   34       -0.000129
   36       -0.000005
   38       -0.000205
   39       -0.000046
   40        0.000013
   41        0.000016
   43        0.000085
   44       -0.000054
   45       -0.000005
   47       -0.000205
   48       -0.000046
   49        0.000013
   50        0.000016
   52       -0.000085
   53       -0.000054
Sym= A
Ene=   -1.3553
Spin= Alpha
Occup=  2.0000
    1        0.000214
    2        0.001615
    3        0.008165
    4        0.028018
    5        0.015790
    6        0.076876
    7        0.161504
    8        0.080113
    9       -0.045114
   10       -0.533490
   11       -0.386014
   12        0.018519
   15        0.001447
   18        0.008784
   21        0.030077
   24        0.062454
   27        0.019283
   30       -0.000380
   31       -0.002842
   34        0.007555
   36       -0.002594
   37       -0.017173
   38       -0.080211
   39       -0.081106
   40        0.003577
   41       -0.007867
   43        0.023842
   44       -0.014771
   45       -0.002594
   46       -0.017173
   47       -0.080211
   48       -0.081106
   49        0.003577
   50       -0.007867
   52       -0.023842
   53       -0.014771
Sym= A
Ene=   -0.7194
Spin= Alpha
Occup=  2.0000
   14       -0.008568
   17       -0.055455
   20       -0.184806
   23       -0.353903
   26       -0.212398
   29       -0.014041
   33        0.028474
   36       -0.003922
   37       -0.027075
   38       -0.127957
   39       -0.213644
   40       -0.032893
   41       -0.010863
   43        0.018783
   44       -0.026376
   45        0.003922
   46        0.027075
   47        0.127957
   48        0.213644
   49        0.032893
   50        0.010863
   52        0.018783
   53        0.026376
Sym= A
Ene=   -0.5849
Spin= Alpha
Occup=  2.0000
    1        0.000071
    2        0.000540
    3        0.002722
    4        0.009429
    5        0.005051
    6        0.026356
    7        0.054439
    8        0.036925
    9       -0.029208
   10       -0.189965
   11       -0.313908
   12       -0.010791
   15       -0.009391
   18       -0.061267
   21       -0.204470
   24       -0.387440
   27       -0.296454
   30       -0.060325
   31        0.016456
   34       -0.004933
   36        0.002361
   37        0.015847
   38        0.077293
   39        0.149178
   40        0.019067
   41       -0.000906
   43       -0.030456
   44       -0.009711
   45        0.002361
   46        0.015847
   47        0.077293
   48        0.149178
   49        0.019067
   50       -0.000906
   52        0.030456
   53       -0.009711
Sym= A
Ene=   -0.5102
Spin= Alpha
Occup=  2.0000
   13        0.010641
   16        0.070024
   19        0.232541
   22        0.448097
   25        0.409755
   28        0.083376
   32       -0.016480
   42        0.032592
   51        0.032592
Sym= A
Ene=    0.0428
Spin= Alpha
Occup=  0.0000
    1        0.000031
    2        0.000227
    3        0.001233
    4        0.003523
    5        0.004822
    6        0.007109
    7        0.031661
    8       -0.038428
    9        0.053463
   10       -0.134984
   11        0.012945
   12       -0.952167
   15        0.001319
   18        0.008196
   21        0.029549
   24        0.051377
   27        0.092042
   30        0.060686
   31       -0.002322
   34       -0.000506
   36        0.000009
   37        0.002483
   38       -0.009758
   39        0.074218
   40        0.034328
   41        0.825090
   43        0.011904
   44       -0.008458
   45        0.000009
   46        0.002483
   47       -0.009758
   48        0.074218
   49        0.034328
   50        0.825090
   52       -0.011904
   53       -0.008458
Sym= A
Ene=    0.0722
Spin= Alpha
Occup=  0.0000
   14        0.001405
   17        0.010127
   20        0.029520
   23        0.073671
   26       -0.013211
   29        0.464421
   33        0.000483
   36        0.000272
   37       -0.000800
   38        0.018588
   39       -0.028564
   40        0.067423
   41       -2.540427
   43       -0.009908
   44        0.009885
   45       -0.000272
   46        0.000800
   47       -0.018588
   48        0.028564
   49       -0.067423
   50        2.540427
   52       -0.009908
   53       -0.009885
Sym= A
Ene=    0.2415
Spin= Alpha
Occup=  0.0000
    1        0.000014
    2        0.000110
    3        0.000512
    4        0.002125
    5       -0.000220
    6        0.007222
    7        0.007249
    8        0.030516
    9       -0.032261
   10       -0.044897
   11        0.085989
   12       -2.184444
   15       -0.003670
   18       -0.019330
   21       -0.088722
   24       -0.082628
   27       -0.601283
   30        1.994857
   31        0.008791
   34       -0.010736
   36        0.000236
   37        0.004070
   38        0.004132
   39       -0.072214
   40        1.230268
   41        0.152611
   43        0.020971
   44        0.002828
   45        0.000236
   46        0.004070
   47        0.004132
   48       -0.072214
   49        1.230268
   50        0.152611
   52       -0.020971
   53        0.002828
Sym= A
Ene=    0.2451
Spin= Alpha
Occup=  0.0000
   13        0.004255
   16        0.021665
   19        0.104580
   22        0.085407
   25        0.598016
   28       -1.283851
   32       -0.006760
   42       -0.011502
   51       -0.011502
Sym= A
Ene=    0.2466
Spin= Alpha
Occup=  0.0000
    1        0.000060
    2        0.000481
    3        0.002219
    4        0.009409
    5       -0.001698
    6        0.032543
    7        0.028533
    8        0.156764
    9       -0.175162
   10       -0.052861
   11       -0.695709
   12       -3.776716
   15        0.002677
   18        0.017639
   21        0.059145
   24        0.109360
   27        0.111845
   30        1.617752
   31       -0.002460
   34       -0.011313
   36        0.001564
   37        0.000892
   38        0.087801
   39       -0.233861
   40        3.587170
   41       -0.727183
   43        0.032293
   44       -0.005511
   45        0.001564
   46        0.000892
   47        0.087801
   48       -0.233861
   49        3.587170
   50       -0.727183
   52       -0.032293
   53       -0.005511
Sym= A
Ene=    0.2587
Spin= Alpha
Occup=  0.0000
   14       -0.002412
   17       -0.016452
   20       -0.052660
   23       -0.099486
   26       -0.028587
   29       -2.613729
   33       -0.020202
   36        0.001576
   37        0.001430
   38        0.088014
   39       -0.234533
   40        3.747946
   41       -0.460351
   43        0.009680
   44       -0.030537
   45       -0.001576
   46       -0.001430
   47       -0.088014
   48        0.234533
   49       -3.747946
   50        0.460351
   52        0.009680
   53        0.030537
Sym= A
Ene=    0.3185
Spin= Alpha
Occup=  0.0000
   14       -0.004590
   17       -0.025484
   20       -0.108960
   23       -0.119816
   26       -0.717855
   29        1.970930
   33        0.019062
   36        0.000175
   37       -0.004104
   38        0.018519
   39        0.006235
   40        0.064048
   41       -2.067480
   43        0.005825
   44        0.006020
   45       -0.000175
   46        0.004104
   47       -0.018519
   48       -0.006235
   49       -0.064048
   50        2.067480
   52        0.005825
   53       -0.006020
Sym= A
Ene=    0.3208
Spin= Alpha
Occup=  0.0000
    1        0.000049
    2        0.000423
    3        0.001671
    4        0.009592
    5       -0.009761
    6        0.040660
    7       -0.001834
    8        0.301403
    9       -0.350081
   10        0.112198
   11       -1.426211
   12        8.829182
   15       -0.000461
   18        0.000027
   21       -0.015539
   24        0.034211
   27       -0.026034
   30       -2.310786
   31       -0.001885
   34        0.021418
   36       -0.000260
   37        0.000664
   38       -0.021169
   39        0.217568
   40       -3.973478
   41       -0.476090
   43       -0.025971
   44        0.010127
   45       -0.000260
   46        0.000664
   47       -0.021169
   48        0.217568
   49       -3.973478
   50       -0.476090
   52        0.025971
   53        0.010127
Sym= A
Ene=    0.6739
Spin= Alpha
Occup=  0.0000
   14       -0.005199
   17       -0.033572
   20       -0.117529
   23       -0.231370
   26       -1.146235
   29        1.569499
   33       -0.028353
   36        0.002414
   37        0.046812
   38       -0.011069
   39        1.808420
   40       -3.141672
   41        0.608261
   43       -0.014825
   44       -0.014168
   45       -0.002414
   46       -0.046812
   47        0.011069
   48       -1.808420
   49        3.141672
   50       -0.608261
   52       -0.014825
   53        0.014168
Sym= A
Ene=    0.7268
Spin= Alpha
Occup=  0.0000
    1       -0.000066
    2       -0.000495
    3       -0.002570
    4       -0.008303
    5       -0.006829
    6       -0.021112
    7       -0.057706
    8        0.005794
    9       -0.022863
   10        0.195422
   11        1.346919
   12       -4.081494
   15       -0.004052
   18       -0.027830
   21       -0.089048
   24       -0.213322
   27       -1.056078
   30        1.517696
   31        0.009525
   34        0.020357
   36       -0.002296
   37       -0.048171
   38        0.033207
   39       -2.183522
   40        3.598003
   41       -0.383500
   43        0.014944
   44       -0.031930
   45       -0.002296
   46       -0.048171
   47        0.033207
   48       -2.183522
   49        3.598003
   50       -0.383500
   52       -0.014944
   53       -0.031930
Sym= A
Ene=    1.1914
Spin= Alpha
Occup=  0.0000
    1        0.000006
    2        0.000026
    3        0.000307
    4       -0.000404
    5        0.005575
    6       -0.006638
    7        0.020865
    8       -0.127207
    9        0.167909
   10       -0.317431
   11        1.687231
   12       -1.875259
   15        0.007912
   18        0.075180
   21        0.147844
   24        0.757784
   27       -2.128040
   30        1.233992
   31        0.007370
   34       -0.008111
   36       -0.000697
   37        0.007771
   38       -0.081956
   39       -0.900023
   40        0.929249
   41        0.112599
   43        0.133050
   44       -0.208247
   45       -0.000697
   46        0.007771
   47       -0.081956
   48       -0.900023
   49        0.929249
   50        0.112599
   52       -0.133050
   53       -0.208247
Sym= A
Ene=    1.2336
Spin= Alpha
Occup=  0.0000
   13       -0.008429
   16       -0.088556
   19       -0.144697
   22       -0.938434
   25        1.629842
   28       -0.739552
   32        0.004801
   42        0.017097
   51        0.017097
Sym= A
Ene=    1.2379
Spin= Alpha
Occup=  0.0000
   14       -0.007712
   17       -0.072803
   20       -0.144217
   23       -0.752492
   26        2.302517
   29       -1.422250
   33       -0.013587
   36       -0.000795
   37        0.012918
   38       -0.115097
   39       -0.538992
   40        0.237407
   41        0.914353
   43        0.183642
   44       -0.121254
   45        0.000795
   46       -0.012918
   47        0.115097
   48        0.538992
   49       -0.237407
   50       -0.914353
   52        0.183642
   53        0.121254
Sym= A
Ene=    1.4433
Spin= Alpha
Occup=  0.0000
    1       -0.000109
    2       -0.000640
    3       -0.004762
    4       -0.003899
    5       -0.051876
    6        0.035299
    7       -0.220259
    8        0.918627
    9       -1.150705
   10        1.394342
   11       -1.699328
   12        1.921650
   15        0.001172
   18        0.018526
   21        0.010164
   24        0.242490
   27       -0.846927
   30       -0.115370
   31       -0.095325
   34       -0.036741
   36        0.000682
   37       -0.002835
   38        0.091526
   39       -0.234764
   40       -0.335779
   41       -0.221957
   43        0.307035
   44        0.467378
   45        0.000682
   46       -0.002835
   47        0.091526
   48       -0.234764
   49       -0.335779
   50       -0.221957
   52       -0.307035
   53        0.467378
Sym= A
Ene=    1.5068
Spin= Alpha
Occup=  0.0000
   35       -0.125558
   42       -0.688974
   51        0.688974
Sym= A
Ene=    1.5171
Spin= Alpha
Occup=  0.0000
    1        0.000152
    2        0.000894
    3        0.006695
    4        0.005229
    5        0.073848
    6       -0.051381
    7        0.313166
    8       -1.328056
    9        1.670598
   10       -2.169883
   11        4.334406
   12       -3.707210
   15       -0.000754
   18       -0.016157
   21       -0.000238
   24       -0.184190
   27       -1.247535
   30        0.867868
   31       -0.081121
   34       -0.023702
   36        0.000441
   37        0.002335
   38        0.021892
   39       -1.551543
   40        1.537533
   41        0.210595
   43        0.489039
   44        0.189896
   45        0.000441
   46        0.002335
   47        0.021892
   48       -1.551543
   49        1.537533
   50        0.210595
   52       -0.489039
   53        0.189896
Sym= A
Ene=    1.7121
Spin= Alpha
Occup=  0.0000
   13       -0.000947
   16       -0.005287
   19       -0.025371
   22        0.017385
   25       -0.720615
   28        0.122961
   32       -0.150203
   42        0.769230
   51        0.769230
Sym= A
Ene=    1.9248
Spin= Alpha
Occup=  0.0000
   14       -0.001348
   17       -0.012232
   20       -0.027050
   23       -0.121401
   26        1.233355
   29       -0.546849
   33       -0.061157
   36        0.003934
   37       -0.009087
   38        0.358422
   39       -1.196523
   40        0.966932
   41       -0.109893
   43       -0.476958
   44       -0.625004
   45       -0.003934
   46        0.009087
   47       -0.358422
   48        1.196523
   49       -0.966932
   50        0.109893
   52       -0.476958
   53        0.625004
Sym= A
Ene=    2.0971
Spin= Alpha
Occup=  0.0000
   14       -0.005318
   17       -0.047405
   20       -0.108879
   23       -0.397412
   26        0.313346
   29       -0.548812
   33       -0.153605
   36        0.011673
   37       -0.023865
   38        1.035139
   39       -1.550356
   40        1.683210
   41       -0.453714
   43       -0.061794
   44        0.411464
   45       -0.011673
   46        0.023865
   47       -1.035139
   48        1.550356
   49       -1.683210
   50        0.453714
   52       -0.061794
   53       -0.411464
Sym= A
Ene=    2.1726
Spin= Alpha
Occup=  0.0000
    1        0.000048
    2        0.000381
    3        0.001805
    4        0.007253
    5        0.000101
    6        0.024043
    7        0.029289
    8        0.108714
    9       -0.130855
   10       -0.088379
   11        1.194883
   12       -2.158645
   15        0.004220
   18        0.026301
   21        0.107972
   24        0.079561
   27       -0.665449
   30        0.722769
   31        0.045448
   34       -0.156335
   36        0.013658
   37       -0.020388
   38        1.249736
   39       -2.373061
   40        2.156766
   41       -0.247168
   43       -0.012512
   44       -0.071147
   45        0.013658
   46       -0.020388
   47        1.249736
   48       -2.373061
   49        2.156766
   50       -0.247168
   52        0.012512
   53       -0.071147
Sym= A
Ene=    2.5069
Spin= Alpha
Occup=  0.0000
    1        0.000077
    2        0.000399
    3        0.003540
    4       -0.000326
    5        0.049848
    6       -0.047799
    7        0.201444
    8       -1.026580
    9        1.308177
   10       -1.199330
   11       -2.053229
   12        1.182682
   15        0.002280
   18        0.042070
   21        0.002522
   24        0.785818
   27        0.808664
   30       -0.394165
   31        0.066385
   34       -0.127816
   36       -0.001613
   37        0.005965
   38       -0.305688
   39        1.896408
   40       -0.885449
   41        0.040705
   43       -0.999891
   44        0.702106
   45       -0.001613
   46        0.005965
   47       -0.305688
   48        1.896408
   49       -0.885449
   50        0.040705
   52        0.999891
   53        0.702106
Sym= A
Ene=    2.6313
Spin= Alpha
Occup=  0.0000
   14        0.001341
   17        0.042254
   20       -0.034801
   23        0.957131
   26        0.783768
   29       -0.394088
   33       -0.057962
   36        0.006087
   37       -0.016936
   38        0.750702
   39       -2.166261
   40        1.072094
   41       -0.223824
   43        0.917942
   44       -0.710651
   45       -0.006087
   46        0.016936
   47       -0.750702
   48        2.166261
   49       -1.072094
   50        0.223824
   52        0.917942
   53        0.710651
Sym= A
Ene=    3.4862
Spin= Alpha
Occup=  0.0000
   13       -0.000156
   16        0.000626
   19       -0.005016
   22        0.020812
   25       -0.322247
   28        0.055604
   32        1.034498
   42        0.363194
   51        0.363194
Sym= A
Ene=    3.5345
Spin= Alpha
Occup=  0.0000
   35        1.053025
   42       -0.339672
   51        0.339672
Sym= A
Ene=    3.7123
Spin= Alpha
Occup=  0.0000
    2        0.000001
    3       -0.000031
    4        0.000176
    5       -0.001010
    6        0.001505
    7       -0.003157
    8        0.016796
    9       -0.017943
   10       -0.046897
   11        0.633945
   12       -0.249451
   15       -0.000392
   18       -0.001410
   21       -0.009709
   24       -0.015900
   27       -0.641343
   30        0.149647
   31        1.061994
   34        0.220355
   36        0.000183
   37       -0.003168
   38        0.019710
   39       -0.499115
   40        0.225044
   41       -0.014935
   43        0.358429
   44        0.272317
   45        0.000183
   46       -0.003168
   47        0.019710
   48       -0.499115
   49        0.225044
   50       -0.014935
   52       -0.358429
   53        0.272317
Sym= A
Ene=    4.0572
Spin= Alpha
Occup=  0.0000
    1        0.000044
    2        0.000396
    3        0.001452
    4        0.009630
    5       -0.012686
    6        0.044093
    7       -0.009490
    8        0.353803
    9       -0.400697
   10        0.061301
   11       -2.787306
   12        1.811758
   15        0.010422
   18        0.038059
   21        0.336925
   24        0.053574
   27        1.395147
   30       -0.691987
   31       -0.204500
   34        1.118178
   36        0.003188
   37        0.006813
   38        0.213849
   39        1.605561
   40       -0.999819
   41       -0.041646
   43       -0.680443
   44        0.500403
   45        0.003188
   46        0.006813
   47        0.213849
   48        1.605561
   49       -0.999819
   50       -0.041646
   52        0.680443
   53        0.500403
Sym= A
Ene=    4.2723
Spin= Alpha
Occup=  0.0000
   14       -0.014663
   17       -0.044816
   20       -0.496552
   23        0.152168
   26       -1.347480
   29        0.632738
   33        1.177588
   36        0.004170
   37        0.001456
   38        0.309208
   39        0.854905
   40       -0.343036
   41       -0.285023
   43       -0.512980
   44        0.409751
   45       -0.004170
   46       -0.001456
   47       -0.309208
   48       -0.854905
   49        0.343036
   50        0.285023
   52       -0.512980
   53       -0.409751
Sym= A
Ene=    5.0485
Spin= Alpha
Occup=  0.0000
   13       -0.034986
   16       -0.074656
   19       -1.326985
   22        1.640776
   25       -0.826514
   28        0.300327
   32       -0.013816
   42       -0.039724
   51       -0.039724
Sym= A
Ene=    5.3789
Spin= Alpha
Occup=  0.0000
    1        0.000081
    2        0.000966
    3        0.001915
    4        0.031498
    5       -0.080927
    6        0.182576
    7       -0.197174
    8        2.097983
    9       -2.539112
   10        0.691597
   11       -1.729877
   12        0.945992
   15       -0.032769
   18       -0.064477
   21       -1.287002
   24        1.910654
   27       -0.253666
   30        0.003785
   31       -0.098063
   34        0.390662
   36        0.002807
   37        0.002936
   38        0.251022
   39        0.622348
   40       -0.341383
   41       -0.052794
   43       -0.464930
   44        0.281899
   45        0.002807
   46        0.002936