[Molden Format]
[GTO]
    1 0
 s  12 1.00
    8588.5000000    1.0000000000
    1297.2300000    0.0000000000
     299.2960000    0.0000000000
      87.3771000    0.0000000000
      42.1175000    0.0000000000
      25.6789000    0.0000000000
       9.6283700    0.0000000000
       3.7400400    0.0000000000
       2.8533200    0.0000000000
       0.9056610    0.0000000000
       0.2556110    0.0000000000
       0.0845000    0.0000000000
 s  12 1.00
    8588.5000000    0.0000000000
    1297.2300000    1.0000000000
     299.2960000    0.0000000000
      87.3771000    0.0000000000
      42.1175000    0.0000000000
      25.6789000    0.0000000000
       9.6283700    0.0000000000
       3.7400400    0.0000000000
       2.8533200    0.0000000000
       0.9056610    0.0000000000
       0.2556110    0.0000000000
       0.0845000    0.0000000000
 s  12 1.00
    8588.5000000    0.0000000000
    1297.2300000    0.0000000000
     299.2960000    1.0000000000
      87.3771000    0.0000000000
      42.1175000    0.0000000000
      25.6789000    0.0000000000
       9.6283700    0.0000000000
       3.7400400    0.0000000000
       2.8533200    0.0000000000
       0.9056610    0.0000000000
       0.2556110    0.0000000000
       0.0845000    0.0000000000
 s  12 1.00
    8588.5000000    0.0000000000
    1297.2300000    0.0000000000
     299.2960000    0.0000000000
      87.3771000    1.0000000000
      42.1175000    0.0000000000
      25.6789000    0.0000000000
       9.6283700    0.0000000000
       3.7400400    0.0000000000
       2.8533200    0.0000000000
       0.9056610    0.0000000000
       0.2556110    0.0000000000
       0.0845000    0.0000000000
 s  12 1.00
    8588.5000000    0.0000000000
    1297.2300000    0.0000000000
     299.2960000    0.0000000000
      87.3771000    0.0000000000
      42.1175000    1.0000000000
      25.6789000    0.0000000000
       9.6283700    0.0000000000
       3.7400400    0.0000000000
       2.8533200    0.0000000000
       0.9056610    0.0000000000
       0.2556110    0.0000000000
       0.0845000    0.0000000000
 s  12 1.00
    8588.5000000    0.0000000000
    1297.2300000    0.0000000000
     299.2960000    0.0000000000
      87.3771000    0.0000000000
      42.1175000    0.0000000000
      25.6789000    1.0000000000
       9.6283700    0.0000000000
       3.7400400    0.0000000000
       2.8533200    0.0000000000
       0.9056610    0.0000000000
       0.2556110    0.0000000000
       0.0845000    0.0000000000
 s  12 1.00
    8588.5000000    0.0000000000
    1297.2300000    0.0000000000
     299.2960000    0.0000000000
      87.3771000    0.0000000000
      42.1175000    0.0000000000
      25.6789000    0.0000000000
       9.6283700    1.0000000000
       3.7400400    0.0000000000
       2.8533200    0.0000000000
       0.9056610    0.0000000000
       0.2556110    0.0000000000
       0.0845000    0.0000000000
 s  12 1.00
    8588.5000000    0.0000000000
    1297.2300000    0.0000000000
     299.2960000    0.0000000000
      87.3771000    0.0000000000
      42.1175000    0.0000000000
      25.6789000    0.0000000000
       9.6283700    0.0000000000
       3.7400400    1.0000000000
       2.8533200    0.0000000000
       0.9056610    0.0000000000
       0.2556110    0.0000000000
       0.0845000    0.0000000000
 s  12 1.00
    8588.5000000    0.0000000000
    1297.2300000    0.0000000000
     299.2960000    0.0000000000
      87.3771000    0.0000000000
      42.1175000    0.0000000000
      25.6789000    0.0000000000
       9.6283700    0.0000000000
       3.7400400    0.0000000000
       2.8533200    1.0000000000
       0.9056610    0.0000000000
       0.2556110    0.0000000000
       0.0845000    0.0000000000
 s  12 1.00
    8588.5000000    0.0000000000
    1297.2300000    0.0000000000
     299.2960000    0.0000000000
      87.3771000    0.0000000000
      42.1175000    0.0000000000
      25.6789000    0.0000000000
       9.6283700    0.0000000000
       3.7400400    0.0000000000
       2.8533200    0.0000000000
       0.9056610    1.0000000000
       0.2556110    0.0000000000
       0.0845000    0.0000000000
 s  12 1.00
    8588.5000000    0.0000000000
    1297.2300000    0.0000000000
     299.2960000    0.0000000000
      87.3771000    0.0000000000
      42.1175000    0.0000000000
      25.6789000    0.0000000000
       9.6283700    0.0000000000
       3.7400400    0.0000000000
       2.8533200    0.0000000000
       0.9056610    0.0000000000
       0.2556110    1.0000000000
       0.0845000    0.0000000000
 s  12 1.00
    8588.5000000    0.0000000000
    1297.2300000    0.0000000000
     299.2960000    0.0000000000
      87.3771000    0.0000000000
      42.1175000    0.0000000000
      25.6789000    0.0000000000
       9.6283700    0.0000000000
       3.7400400    0.0000000000
       2.8533200    0.0000000000
       0.9056610    0.0000000000
       0.2556110    0.0000000000
       0.0845000    1.0000000000
 p   6 1.00
      42.1175000    1.0000000000
       9.6283700    0.0000000000
       2.8533200    0.0000000000
       0.9056610    0.0000000000
       0.2556110    0.0000000000
       0.0845000    0.0000000000
 p   6 1.00
      42.1175000    0.0000000000
       9.6283700    1.0000000000
       2.8533200    0.0000000000
       0.9056610    0.0000000000
       0.2556110    0.0000000000
       0.0845000    0.0000000000
 p   6 1.00
      42.1175000    0.0000000000
       9.6283700    0.0000000000
       2.8533200    1.0000000000
       0.9056610    0.0000000000
       0.2556110    0.0000000000
       0.0845000    0.0000000000
 p   6 1.00
      42.1175000    0.0000000000
       9.6283700    0.0000000000
       2.8533200    0.0000000000
       0.9056610    1.0000000000
       0.2556110    0.0000000000
       0.0845000    0.0000000000
 p   6 1.00
      42.1175000    0.0000000000
       9.6283700    0.0000000000
       2.8533200    0.0000000000
       0.9056610    0.0000000000
       0.2556110    1.0000000000
       0.0845000    0.0000000000
 p   6 1.00
      42.1175000    0.0000000000
       9.6283700    0.0000000000
       2.8533200    0.0000000000
       0.9056610    0.0000000000
       0.2556110    0.0000000000
       0.0845000    1.0000000000
 d   1 1.00
       1.2920000    1.0000000000

    2 0
 s   6 1.00
      33.8650000    1.0000000000
       5.0947900    0.0000000000
       1.1587900    0.0000000000
       0.3258400    0.0000000000
       0.1027410    0.0000000000
       0.0360000    0.0000000000
 s   6 1.00
      33.8650000    0.0000000000
       5.0947900    1.0000000000
       1.1587900    0.0000000000
       0.3258400    0.0000000000
       0.1027410    0.0000000000
       0.0360000    0.0000000000
 s   6 1.00
      33.8650000    0.0000000000
       5.0947900    0.0000000000
       1.1587900    1.0000000000
       0.3258400    0.0000000000
       0.1027410    0.0000000000
       0.0360000    0.0000000000
 s   6 1.00
      33.8650000    0.0000000000
       5.0947900    0.0000000000
       1.1587900    0.0000000000
       0.3258400    1.0000000000
       0.1027410    0.0000000000
       0.0360000    0.0000000000
 s   6 1.00
      33.8650000    0.0000000000
       5.0947900    0.0000000000
       1.1587900    0.0000000000
       0.3258400    0.0000000000
       0.1027410    1.0000000000
       0.0360000    0.0000000000
 s   6 1.00
      33.8650000    0.0000000000
       5.0947900    0.0000000000
       1.1587900    0.0000000000
       0.3258400    0.0000000000
       0.1027410    0.0000000000
       0.0360000    1.0000000000
 p   1 1.00
       0.7500000    1.0000000000

    3 0
 s   6 1.00
      33.8650000    1.0000000000
       5.0947900    0.0000000000
       1.1587900    0.0000000000
       0.3258400    0.0000000000
       0.1027410    0.0000000000
       0.0360000    0.0000000000
 s   6 1.00
      33.8650000    0.0000000000
       5.0947900    1.0000000000
       1.1587900    0.0000000000
       0.3258400    0.0000000000
       0.1027410    0.0000000000
       0.0360000    0.0000000000
 s   6 1.00
      33.8650000    0.0000000000
       5.0947900    0.0000000000
       1.1587900    1.0000000000
       0.3258400    0.0000000000
       0.1027410    0.0000000000
       0.0360000    0.0000000000
 s   6 1.00
      33.8650000    0.0000000000
       5.0947900    0.0000000000
       1.1587900    0.0000000000
       0.3258400    1.0000000000
       0.1027410    0.0000000000
       0.0360000    0.0000000000
 s   6 1.00
      33.8650000    0.0000000000
       5.0947900    0.0000000000
       1.1587900    0.0000000000
       0.3258400    0.0000000000
       0.1027410    1.0000000000
       0.0360000    0.0000000000
 s   6 1.00
      33.8650000    0.0000000000
       5.0947900    0.0000000000
       1.1587900    0.0000000000
       0.3258400    0.0000000000
       0.1027410    0.0000000000
       0.0360000    1.0000000000
 p   1 1.00
       0.7500000    1.0000000000

[SCFCONV]
scf-first  1  THROUGH  10
      -75.8703181833
      -76.0421530486
      -76.0520758424
      -76.0531726826
      -76.0533200882
      -76.0533386746
      -76.0533398890
      -76.0533399224
      -76.0533399231
      -76.0533399231
[TITLE]
*** Dalton interface to Molden, wave function type : HF            25May22   12:
[Atoms] AU
O          1     8         0.0000000000         0.0000000000         0.222590840
H          2     1         0.0000000000         1.4275936011        -0.890363361
H          3     1         0.0000000000        -1.4275936011        -0.890363361
[End of Molden output from Dalton]
