[Molden Format]
[GTO]
    1 0
 s   1 1.00
       1.0000000    1.0000000000
 p   1 1.00
       1.0000000    1.0000000000
 d   1 1.00
       0.2331360    1.0000000000

*** Dalton interface to Molden, wave function type :
HF          10Jun22   15:56:48
[Atoms] AU
He         1     2         0.0000000000         0.0000000000         0.000000000
[5D7F]
[9G]
[MO]
Sym= A
 Ene=  -0.56315907611594884
Spin= Alpha
Occup=  2.0000
    1        0.9999999999999999
    2        0.0000000000000000
    3        0.0000000000000000
    4        0.0000000000000000
    5        0.0000000000000001
    6        0.0000000000000000
    7        0.0000000000000000
    8        0.0000000000000000
    9        0.0000000000000000
Sym= A
 Ene=   0.81105937005927964
Spin= Alpha
Occup=  0.0000
    1        0.0000000000000000
    2        0.0000000000000000
    3        0.0000000000000000
    4        0.0000000000000000
    5        0.0000000000000000
    6        0.0000000000000000
    7        0.0000000000000000
    8        0.0000000000000000
    9        1.0000000000000000
Sym= A
 Ene=   0.81105937005927964
Spin= Alpha
Occup=  0.0000
    1       -0.0000000000000001
    2        0.0000000000000000
    3        0.0000000000000000
    4        0.0000000000000000
    5        0.9999999999999998
    6        0.0000000000000000
    7        0.0000000000000000
    8        0.0000000000000000
    9        0.0000000000000000
Sym= A
 Ene=   0.81105937005927997
Spin= Alpha
Occup=  0.0000
    1        0.0000000000000000
    2        0.0000000000000000
    3        0.0000000000000000
    4        0.0000000000000000
    5        0.0000000000000000
    6        1.0000000000000000
    7        0.0000000000000000
    8        0.0000000000000000
    9        0.0000000000000000
Sym= A
 Ene=   0.81105937005927986
Spin= Alpha
Occup=  0.0000
    1        0.0000000000000000
    2        0.0000000000000000
    3        0.0000000000000000
    4        0.0000000000000000
    5        0.0000000000000000
    6        0.0000000000000000
    7        0.0000000000000000
    8        1.0000000000000000
    9        0.0000000000000000
Sym= A
 Ene=   0.81105937005928008
Spin= Alpha
Occup=  0.0000
    1        0.0000000000000000
    2        0.0000000000000000
    3        0.0000000000000000
    4        0.0000000000000000
    5        0.0000000000000000
    6        0.0000000000000000
    7        1.0000000000000000
    8        0.0000000000000000
    9        0.0000000000000000
Sym= A
 Ene=    2.0648765885022944
Spin= Alpha
Occup=  0.0000
    1        0.0000000000000000
    2        0.0000000000000000
    3        0.0000000000000000
    4        0.9999999999999998
    5        0.0000000000000000
    6        0.0000000000000000
    7        0.0000000000000000
    8        0.0000000000000000
    9        0.0000000000000000
Sym= A
 Ene=    2.0648765885022944
Spin= Alpha
Occup=  0.0000
    1        0.0000000000000000
    2        0.9999999999999998
    3        0.0000000000000000
    4        0.0000000000000000
    5        0.0000000000000000
    6        0.0000000000000000
    7        0.0000000000000000
    8        0.0000000000000000
    9        0.0000000000000000
Sym= A
 Ene=    2.0648765885022944
Spin= Alpha
Occup=  0.0000
    1        0.0000000000000000
    2        0.0000000000000000
    3        0.9999999999999998
    4        0.0000000000000000
    5        0.0000000000000000
    6        0.0000000000000000
    7        0.0000000000000000
    8        0.0000000000000000
    9        0.0000000000000000
