[Molden Format]
 Molden2AIM, Version 5.0.2 (10/09/2020)           Time: Tue Apr  6 02:14:06 2021

[Atoms] AU
  O      1    8        0.0000000000        0.0000000000        0.0000000000
  O      2    8        0.0000000000        0.0000000000        2.7620615100
  H      3    1        1.7632933500        0.0000000000       -0.4771920800
  H      4    1       -0.8816466700        1.5270568300        3.2392535900
[GTO]
    1    0
 S    6  1.0
    0.5484671700D+04    0.1831099806D-02
    0.8252349500D+03    0.1395009852D-01
    0.1880469600D+03    0.6844509273D-01
    0.5296450000D+02    0.2327142753D+00
    0.1689757000D+02    0.4701929501D+00
    0.5799635300D+01    0.3585208619D+00
 S    3  1.0
    0.1553961600D+02   -0.1107775038D+00
    0.3599933600D+01   -0.1480263051D+00
    0.1013761800D+01    0.1130767039D+01
 S    1  1.0
    0.2700058000D+00    0.1000000000D+01
 P    3  1.0
    0.1553961600D+02    0.7087429954D-01
    0.3599933600D+01    0.3397527978D+00
    0.1013761800D+01    0.7271585953D+00
 P    1  1.0
    0.2700058000D+00    0.1000000000D+01
 D    1  1.0
    0.8000000000D+00    0.1000000000D+01

    2    0
 S    6  1.0
    0.5484671700D+04    0.1831099806D-02
    0.8252349500D+03    0.1395009852D-01
    0.1880469600D+03    0.6844509273D-01
    0.5296450000D+02    0.2327142753D+00
    0.1689757000D+02    0.4701929501D+00
    0.5799635300D+01    0.3585208619D+00
 S    3  1.0
    0.1553961600D+02   -0.1107775038D+00
    0.3599933600D+01   -0.1480263051D+00
    0.1013761800D+01    0.1130767039D+01
 S    1  1.0
    0.2700058000D+00    0.1000000000D+01
 P    3  1.0
    0.1553961600D+02    0.7087429954D-01
    0.3599933600D+01    0.3397527978D+00
    0.1013761800D+01    0.7271585953D+00
 P    1  1.0
    0.2700058000D+00    0.1000000000D+01
 D    1  1.0
    0.8000000000D+00    0.1000000000D+01

    3    0
 S    3  1.0
    0.1873113700D+02    0.3349459952D-01
    0.2825393700D+01    0.2347269467D+00
    0.6401217000D+00    0.8137573184D+00
 S    1  1.0
    0.1612778000D+00    0.1000000000D+01
 P    1  1.0
    0.1100000000D+01    0.1000000000D+01

    4    0
 S    3  1.0
    0.1873113700D+02    0.3349459952D-01
    0.2825393700D+01    0.2347269467D+00
    0.6401217000D+00    0.8137573184D+00
 S    1  1.0
    0.1612778000D+00    0.1000000000D+01
 P    1  1.0
    0.1100000000D+01    0.1000000000D+01

[MO]
 Sym= A
 Ene=          0.00000000
 Spin= Alpha
 Occup=        2.00000000
    1        0.7061444796
    2        0.0092684848
    3       -0.0074812183
    4        0.0012563569
    5       -0.0004760824
    6       -0.0003296565
    7        0.0001857895
    8       -0.0003176313
    9       -0.0000226919
   10       -0.0001801195
   11        0.0002017094
   12       -0.0000215899
   13       -0.0000109452
   14       -0.0000436448
   15       -0.0000063548
   16        0.6964911950
   17        0.0299405833
   18        0.0125329226
   19        0.0163336920
   20        0.0063474901
   21        0.0001712618
   22        0.0113271159
   23        0.0036472704
   24       -0.0000115983
   25        0.0001079031
   26        0.0000226141
   27       -0.0001305173
   28        0.0003370894
   29       -0.0000071492
   30        0.0001434362
   31        0.0000119023
   32        0.0009302951
   33       -0.0002477090
   34       -0.0000024178
   35        0.0000649886
   36       -0.0006054587
   37       -0.0011484163
   38        0.0002196829
   39       -0.0001840266
   40       -0.0000656879
 Sym= A
 Ene=          1.00000000
 Spin= Alpha
 Occup=        2.00000000
    1       -0.7060749201
    2       -0.0097805792
    3        0.0077266668
    4       -0.0010688430
    5        0.0004871086
    6        0.0014411382
    7        0.0001734295
    8        0.0004016773
    9        0.0015661425
   10        0.0000913535
   11       -0.0002977451
   12        0.0002063916
   13        0.0000149417
   14        0.0001334460
   15        0.0000392928
   16        0.6964913093
   17        0.0300046914
   18        0.0122805068
   19        0.0162937860
   20        0.0065842860
   21       -0.0014493878
   22        0.0112477546
   23        0.0038983151
   24       -0.0009417543
   25        0.0001175330
   26        0.0000417218
   27       -0.0001592548
   28        0.0003290197
   29        0.0000026495
   30        0.0001293723
   31       -0.0000477220
   32       -0.0006455126
   33        0.0002537408
   34        0.0000027794
   35       -0.0000650767
   36       -0.0004199449
   37       -0.0007304987
   38        0.0002143025
   39       -0.0001721945
   40       -0.0000907420
 Sym= A
 Ene=          2.00000000
 Spin= Alpha
 Occup=        2.00000000
    1        0.0010152495
    2       -0.0039319046
    3       -0.0003170068
    4        0.0013128158
    5        0.0014414521
    6       -0.0059925795
    7        0.0002457181
    8       -0.0004145739
    9       -0.0055880158
   10       -0.0007239791
   11       -0.0007531279
   12        0.0014771070
   13        0.0000144812
   14       -0.0001928628
   15       -0.0003022119
   16       -0.2451154934
   17        0.5206253865
   18        0.5047814094
   19       -0.1590195765
   20       -0.1866816267
   21       -0.0274376989
   22       -0.1072502903
   23       -0.1232570509
   24       -0.0141589731
   25        0.0029968564
   26       -0.0015841014
   27       -0.0014127550
   28        0.0002935549
   29       -0.0010418578
   30        0.0005814854
   31       -0.0004976084
   32       -0.0014039068
   33       -0.0000947668
   34        0.0000129335
   35       -0.0000848861
   36       -0.0146662462
   37       -0.0495906467
   38       -0.0008447937
   39       -0.0012151707
   40       -0.0002167769
 Sym= A
 Ene=          3.00000000
 Spin= Alpha
 Occup=        2.00000000
    1        0.1800472254
    2       -0.4511303076
    3       -0.4359189454
    4        0.0683307846
    5        0.3987256612
    6       -0.0333717476
    7        0.0440702112
    8        0.2670945415
    9       -0.0184797408
   10        0.0004324369
   11       -0.0016314708
   12        0.0011990339
   13        0.0035052648
   14        0.0008112087
   15       -0.0010608205
   16       -0.0009183669
   17        0.0036550010
   18        0.0003615694
   19       -0.0007375448
   20       -0.0023709626
   21       -0.0053383713
   22        0.0002754023
   23        0.0004786945
   24       -0.0049479624
   25        0.0006759479
   26        0.0006357977
   27       -0.0013117456
   28        0.0000277924
   29       -0.0001262885
   30       -0.0006627556
   31        0.0126362441
   32        0.0428623697
   33        0.0005469137
   34        0.0022942043
   35       -0.0002478806
   36       -0.0003205212
   37        0.0005927282
   38       -0.0000790643
   39        0.0001070156
   40       -0.0000862430
 Sym= A
 Ene=          4.00000000
 Spin= Alpha
 Occup=        2.00000000
    1       -0.0001361384
    2        0.0004896713
    3       -0.0002065562
    4        0.0015881220
    5        0.0015968434
    6        0.0015677884
    7       -0.0018358551
    8       -0.0002916074
    9        0.0015456483
   10        0.0002643910
   11        0.0001382710
   12       -0.0004026619
   13       -0.0000283293
   14       -0.0011890779
   15       -0.0005486883
   16        0.1248355844
   17       -0.1828924356
   18       -0.1808632836
   19       -0.5778155235
   20       -0.2886546204
   21       -0.0255720371
   22       -0.3876484454
   23       -0.1942205058
   24       -0.0178182721
   25        0.0031305006
   26       -0.0037291724
   27        0.0005986718
   28       -0.0036838038
   29       -0.0011732380
   30       -0.0014263950
   31        0.0029440171
   32        0.0028083672
   33       -0.0001506018
   34        0.0000092401
   35       -0.0000156058
   36        0.0053319440
   37        0.0175363782
   38       -0.0033061970
   39       -0.0016245342
   40       -0.0001353834
 Sym= A
 Ene=          5.00000000
 Spin= Alpha
 Occup=        2.00000000
    1       -0.1271741764
    2        0.3203293759
    3        0.3125459105
    4       -0.0600301477
    5        0.5573878458
    6       -0.0170932616
    7       -0.0393158145
    8        0.3743521917
    9       -0.0132800010
   10       -0.0009150651
   11        0.0018894253
   12       -0.0009743602
   13        0.0044867142
   14       -0.0009136695
   15       -0.0014991200
   16        0.0004169708
   17       -0.0015569560
   18        0.0001256803
   19       -0.0004061090
   20       -0.0015721132
   21        0.0031847471
   22       -0.0007739267
   23        0.0016801330
   24        0.0030251880
   25       -0.0003934357
   26       -0.0004029278
   27        0.0007963636
   28        0.0000721445
   29        0.0001601232
   30       -0.0011682348
   31       -0.0091745031
   32       -0.0304781241
   33       -0.0004314315
   34        0.0031715500
   35       -0.0000648034
   36       -0.0029687684
   37       -0.0030842828
   38       -0.0000637854
   39        0.0000998082
   40        0.0000088873
 Sym= A
 Ene=          6.00000000
 Spin= Alpha
 Occup=        2.00000000
    1       -0.0227893168
    2        0.0347195759
    3        0.0390021418
    4        0.4462067291
    5       -0.0030352358
    6       -0.1924118025
    7        0.3455526730
    8       -0.0017463768
    9       -0.1336588377
   10        0.0168068043
   11       -0.0092832394
   12       -0.0075235649
   13        0.0003960051
   14       -0.0087231777
   15       -0.0002149264
   16       -0.0003773681
   17        0.0021205003
   18       -0.0013915047
   19       -0.0038315289
   20        0.0013528071
   21       -0.0227899295
   22        0.0009613211
   23        0.0019747679
   24       -0.0183614831
   25        0.0004663714
   26        0.0005714815
   27       -0.0010378529
   28       -0.0001051666
   29       -0.0013982979
   30       -0.0000513860
   31        0.2084034466
   32        0.3514531379
   33       -0.0103511927
   34        0.0001222309
   35        0.0026263094
   36        0.0052146458
   37        0.0089952400
   38       -0.0000097165
   39        0.0000225439
   40       -0.0001866584
 Sym= A
 Ene=          7.00000000
 Spin= Alpha
 Occup=        2.00000000
    1       -0.0003646416
    2        0.0021261006
    3       -0.0013875239
    4        0.0030840116
    5       -0.0026697652
    6        0.0227630766
    7        0.0012259740
    8        0.0018005843
    9        0.0183370796
   10        0.0006241029
   11        0.0004140166
   12       -0.0010381196
   13       -0.0000002672
   14       -0.0006549279
   15        0.0012366293
   16       -0.0217516907
   17        0.0347778208
   18        0.0390318827
   19       -0.2257479795
   20        0.3848890155
   21        0.1924372174
   22       -0.1742988019
   23        0.2983686992
   24        0.1336828944
   25       -0.0030569605
   26        0.0105811821
   27       -0.0075242216
   28       -0.0128466104
   29       -0.0041756369
   30        0.0076624063
   31        0.0052114069
   32        0.0089868019
   33        0.0000242294
   34        0.0000026903
   35        0.0001864126
   36        0.2083991120
   37        0.3514420769
   38        0.0052815904
   39       -0.0089038110
   40       -0.0026261867
 Sym= A
 Ene=          8.00000000
 Spin= Alpha
 Occup=        2.00000000
    1        0.0070291509
    2       -0.0263677109
    3       -0.0024220653
    4        0.0573292182
    5        0.0191430807
    6        0.4013676662
    7        0.0580075659
    8        0.0196976009
    9        0.3650141598
   10       -0.0009296598
   11       -0.0049011049
   12        0.0058307647
   13        0.0002498959
   14        0.0035362273
   15        0.0010811743
   16        0.0014413594
   17       -0.0265475484
   18       -0.0024600426
   19       -0.0121777762
   20        0.0592123712
   21       -0.4013506940
   22       -0.0120111752
   23        0.0600875467
   24       -0.3650049205
   25       -0.0040972477
   26       -0.0017346856
   27        0.0058319333
   28       -0.0018638435
   29        0.0008317267
   30       -0.0036036874
   31        0.0498632151
   32        0.1243363691
   33        0.0016408263
   34        0.0002172777
   35        0.0035778448
   36        0.0498792835
   37        0.1243625187
   38       -0.0006333316
   39        0.0015305857
   40       -0.0035773779
 Sym= A
 Ene=          9.00000000
 Spin= Alpha
 Occup=        0.00000000
    1       -0.0048183356
    2       -0.0112315710
    3        0.0415732415
    4        0.1512090621
    5        0.0202270578
    6        0.4004469506
    7        0.1349735035
    8        0.0218335961
    9        0.3857093819
   10        0.0013797489
   11       -0.0084015416
   12        0.0070217927
   13        0.0003241049
   14        0.0018049250
   15        0.0012694283
   16        0.0048183561
   17        0.0112289809
   18       -0.0415692444
   19        0.0580865155
   20       -0.1410610606
   21        0.4004493835
   22        0.0485766918
   23       -0.1278066219
   24        0.3857100931
   25        0.0061979472
   26        0.0008211317
   27       -0.0070190789
   28        0.0047273830
   29        0.0001976718
   30        0.0021975300
   31        0.0163584109
   32        0.0254681814
   33       -0.0003261773
   34       -0.0000968790
   35       -0.0015900337
   36       -0.0163615158
   37       -0.0254725333
   38       -0.0000794107
   39        0.0003314589
   40       -0.0015900131
 Sym= A
 Ene=         10.00000000
 Spin= Alpha
 Occup=        0.00000000
    1        0.0264704747
    2       -0.0686044963
    3       -0.1170320099
    4       -0.4409599256
    5       -0.0025954745
    6        0.0637676973
    7       -0.3609506549
    8       -0.0038795768
    9        0.0270926500
   10       -0.0161443071
   11        0.0104154352
   12        0.0057288718
   13       -0.0003670111
   14        0.0074777525
   15       -0.0001421500
   16       -0.0000350742
   17        0.0027414545
   18       -0.0021535877
   19        0.0107115031
   20       -0.0187823402
   21        0.0671974927
   22        0.0084108692
   23       -0.0174540867
   24        0.0611236523
   25        0.0006554009
   26       -0.0000393288
   27       -0.0006160720
   28        0.0006808961
   29        0.0000297128
   30        0.0004091110
   31        0.3701773830
   32        0.6041842684
   33       -0.0216665599
   34        0.0002602576
   35        0.0073585610
   36       -0.0082804428
   37       -0.0150739260
   38       -0.0000708752
   39        0.0001216280
   40        0.0000765545
 Sym= A
 Ene=         11.00000000
 Spin= Alpha
 Occup=        0.00000000
    1       -0.0000350994
    2        0.0027406283
    3       -0.0021517226
    4       -0.0216211233
    5       -0.0001153538
    6       -0.0671967402
    7       -0.0193201768
    8       -0.0014420500
    9       -0.0611190476
   10       -0.0003760758
   11        0.0009914014
   12       -0.0006153256
   13       -0.0000065341
   14       -0.0003407005
   15       -0.0002303298
   16        0.0264703885
   17       -0.0686030937
   18       -0.1170330096
   19        0.2182332189
   20       -0.3831807042
   21       -0.0637669482
   22        0.1771150575
   23       -0.3145333606
   24       -0.0270875286
   25        0.0040518338
   26       -0.0097806834
   27        0.0057288497
   28        0.0130965855
   29        0.0038629702
   30       -0.0064069209
   31       -0.0082739131
   32       -0.0150790626
   33        0.0001379222
   34       -0.0000007203
   35       -0.0000783062
   36        0.3701818851
   37        0.6041795218
   38        0.0110598720
   39       -0.0186359770
   40       -0.0073577793
 Sym= A
 Ene=         12.00000000
 Spin= Alpha
 Occup=        0.00000000
    1       -0.0110076031
    2       -0.0340083121
    3        0.2394487578
    4        0.0260866447
    5        0.0003323563
    6       -0.0013146791
    7        0.1557404456
    8        0.0007548014
    9       -0.0314617453
   10        0.0159749461
   11       -0.0085481934
   12       -0.0074267527
   13        0.0000853836
   14       -0.0063399689
   15       -0.0000031084
   16       -0.0002896007
   17       -0.0027906702
   18        0.0055628738
   19       -0.0006734268
   20        0.0014391002
   21       -0.0054339419
   22        0.0055216907
   23        0.0007920100
   24       -0.0128114304
   25        0.0001151939
   26       -0.0004504927
   27        0.0003352988
   28        0.0000326679
   29       -0.0004194461
   30       -0.0000838842
   31        1.2313851628
   32       -1.2322567572
   33       -0.2063758051
   34       -0.0116993774
   35       -0.1296760860
   36        0.0004884200
   37        0.0031449320
   38        0.0000768003
   39       -0.0003646329
   40        0.0000357997
 Sym= A
 Ene=         13.00000000
 Spin= Alpha
 Occup=        0.00000000
    1        0.0002892583
    2        0.0027890266
    3       -0.0055581758
    4       -0.0015810363
    5       -0.0001358580
    6       -0.0054365899
    7        0.0020758841
    8       -0.0051784580
    9       -0.0128071498
   10        0.0003333497
   11        0.0000014244
   12       -0.0003347742
   13        0.0002667770
   14        0.0001375507
   15       -0.0004053806
   16        0.0110018583
   17        0.0339659686
   18       -0.2393213790
   19        0.0127581132
   20       -0.0227646992
   21       -0.0013215516
   22        0.0771702185
   23       -0.1351455118
   24       -0.0314030039
   25        0.0024750039
   26       -0.0098942654
   27        0.0074192614
   28        0.0122024935
   29        0.0031598693
   30       -0.0054779681
   31       -0.0004920347
   32       -0.0031466791
   33        0.0003548708
   34        0.0001158431
   35        0.0000359788
   36       -1.2310827187
   37        1.2319222441
   38       -0.0937325119
   39        0.1849608659
   40       -0.1302584207
 Sym= A
 Ene=         14.00000000
 Spin= Alpha
 Occup=        0.00000000
    1       -0.0045302223
    2       -0.0459254038
    3        0.0935820083
    4       -0.0006642018
    5       -0.0000313965
    6       -0.0200351779
    7       -0.0044826605
    8       -0.0002563549
    9        0.1422612977
   10       -0.0107812094
   11       -0.0100474743
   12        0.0208286837
   13        0.0000119155
   14        0.0001290787
   15       -0.0000547720
   16       -0.0483821768
   17        0.6844607240
   18       -0.6943884070
   19       -0.0459342633
   20        0.0031841000
   21       -0.8692859014
   22        0.0444335175
   23        0.0239604766
   24        0.9055842789
   25        0.1490723466
   26        0.0017538309
   27       -0.1508261775
   28       -0.0420864031
   29        0.0227656669
   30        0.0437080477
   31       -0.0032551181
   32        0.0118969481
   33       -0.0016463598
   34        0.0000054871
   35       -0.0034042820
   36       -0.0172930334
   37        0.0426680597
   38       -0.0011159033
   39        0.0010677420
   40       -0.0192398349
 Sym= A
 Ene=         15.00000000
 Spin= Alpha
 Occup=        0.00000000
    1        0.0000210837
    2        0.0018329726
    3       -0.0024729735
    4        0.0015589041
    5        0.0013728327
    6        0.0009981268
    7       -0.0148970945
    8       -0.0142106096
    9       -0.0036542083
   10        0.0002622648
   11        0.0004660106
   12       -0.0007282754
   13       -0.0000346020
   14       -0.0024964512
   15       -0.0025184135
   16        0.0019769956
   17       -0.0498895976
   18        0.0683702787
   19       -0.6644027116
   20       -0.6517597368
   21        0.0413080002
   22        0.7522523883
   23        0.7504832926
   24       -0.0255544295
   25       -0.0221960047
   26        0.0760294212
   27       -0.0538334164
   28        0.0156052622
   29        0.0050668636
   30       -0.0134077672
   31        0.0026243638
   32       -0.0034461822
   33       -0.0013939719
   34        0.0003734655
   35        0.0005743068
   36       -0.0113431596
   37       -0.0826470501
   38       -0.0315643622
   39        0.0113442654
   40        0.0094398015
 Sym= A
 Ene=         16.00000000
 Spin= Alpha
 Occup=        0.00000000
    1       -0.0100985014
    2        0.1003986250
    3       -0.0700696202
    4       -0.4247050579
    5        0.8251724491
    6       -0.0279185937
    7        0.5038577014
    8       -0.9411086551
    9        0.0197973852
   10        0.0543656659
   11        0.0222341822
   12       -0.0765998482
   13       -0.0533943685
   14       -0.0857910805
   15       -0.0149340857
   16       -0.0000332561
   17       -0.0018342684
   18        0.0022848654
   19        0.0012696864
   20       -0.0021363389
   21        0.0013791248
   22       -0.0086260434
   23        0.0183289270
   24       -0.0041471877
   25       -0.0001086631
   26       -0.0000527013
   27        0.0001613644
   28       -0.0001140999
   29        0.0016193705
   30       -0.0031223262
   31       -0.0235368974
   32       -0.1244646205
   33        0.0419027623
   34        0.0198339486
   35       -0.0143543075
   36       -0.0037498531
   37        0.0046611115
   38       -0.0009878033
   39        0.0016328512
   40        0.0007642601
 Sym= A
 Ene=         17.00000000
 Spin= Alpha
 Occup=        0.00000000
    1        0.0527183557
    2       -0.7051512810
    3        0.6862449764
    4        0.6348000381
    5        0.3693955391
    6        0.3967899652
    7       -0.6987322241
    8       -0.4190206308
    9       -0.4055828199
   10       -0.1055702982
   11       -0.0014539612
   12        0.1070242594
   13        0.0005035042
   14        0.0557877709
   15        0.0293736591
   16       -0.0004195163
   17       -0.0053870431
   18        0.0110504407
   19       -0.0015519021
   20       -0.0003598658
   21        0.0008497737
   22        0.0130706683
   23        0.0081393295
   24       -0.0129497107
   25       -0.0018409151
   26       -0.0017919850
   27        0.0036329000
   28       -0.0000001501
   29       -0.0023918532
   30       -0.0014108324
   31        0.0337652717
   32        0.0503538841
   33       -0.0255309726
   34        0.0087507086
   35        0.0197890286
   36       -0.0000560031
   37        0.0008902855
   38       -0.0003476145
   39       -0.0002083243
   40        0.0003344733
 Sym= A
 Ene=         18.00000000
 Spin= Alpha
 Occup=        0.00000000
    1        0.0000722309
    2        0.0006896888
    3       -0.0005171790
    4        0.0017303610
    5       -0.0011782772
    6        0.0015821094
    7       -0.0106089076
    8        0.0119635916
    9       -0.0039389584
   10       -0.0004239350
   11       -0.0003841924
   12        0.0008081274
   13        0.0000245748
   14       -0.0019222283
   15        0.0020826757
   16        0.0608476177
   17       -0.8145223473
   18        0.7934707821
   19       -0.5038799060
   20        0.5429566842
   21       -0.2722498684
   22        0.5682744789
   23       -0.6054829669
   24        0.2755901274
   25       -0.0385890593
   26        0.0444599156
   27       -0.0058708563
   28       -0.0752504313
   29       -0.0231281326
   30        0.0530640160
   31        0.0023750432
   32       -0.0031549723
   33       -0.0009421219
   34       -0.0003152624
   35        0.0004461033
   36        0.0382611659
   37        0.0555458749
   38        0.0095867626
   39       -0.0245101667
   40       -0.0177526234
 Sym= A
 Ene=         19.00000000
 Spin= Alpha
 Occup=        0.00000000
    1        0.0529260006
    2       -0.8381847581
    3        0.9229060718
    4       -0.5787582951
    5       -0.2061115539
    6        0.5242867825
    7        0.7625965714
    8        0.2358986534
    9       -0.6030455249
   10        0.1125239693
   11       -0.1457219401
   12        0.0331979709
   13        0.0711355473
   14       -0.0751280915
   15        0.0356955838
   16       -0.0011119046
   17       -0.0116524306
   18        0.0243606601
   19        0.0014603728
   20        0.0006477976
   21        0.0030071558
   22       -0.0116184461
   23       -0.0050829344
   24       -0.0321183543
   25       -0.0030251593
   26       -0.0032957609
   27        0.0063209202
   28        0.0000406876
   29        0.0023994008
   30        0.0007668099
   31       -0.0333993303
   32       -0.4013441504
   33        0.1200635530
   34       -0.0052943142
   35       -0.0236926602
   36       -0.0011507400
   37        0.0032185674
   38        0.0003072136
   39        0.0001510539
   40        0.0008474830
 Sym= A
 Ene=         20.00000000
 Spin= Alpha
 Occup=        0.00000000
    1       -0.0001531179
    2       -0.0025516782
    3        0.0051878396
    4       -0.0009823865
    5        0.0012816698
    6        0.0002444402
    7        0.0096634787
    8       -0.0088744865
    9        0.0040017985
   10       -0.0007814689
   11       -0.0008354446
   12        0.0016169136
   13       -0.0001189622
   14        0.0016964485
   15       -0.0018411006
   16        0.0669743499
   17       -1.0414409593
   18        1.1325093390
   19        0.4325220905
   20       -0.4463416854
   21       -0.3288540926
   22       -0.5443999409
   23        0.5967658902
   24        0.3971331900
   25       -0.0086770776
   26        0.1683249587
   27       -0.1596478811
   28       -0.1104994991
   29       -0.0049731495
   30        0.0663475077
   31       -0.0016398442
   32        0.0019170474
   33        0.0010008412
   34        0.0002451310
   35       -0.0004208027
   36       -0.0311735519
   37       -0.4322326716
   38       -0.0605371339
   39        0.1114703251
   40        0.0308502762
 Sym= A
 Ene=         21.00000000
 Spin= Alpha
 Occup=        0.00000000
    1       -0.0710372284
    2        1.0220708874
    3       -1.0515568827
    4        0.0659401079
    5        0.0057381888
    6        0.6975117750
    7       -0.0772750214
    8       -0.0016575463
    9       -0.7156579152
   10       -0.1425637116
   11       -0.0521294109
   12        0.1946931225
   13        0.1112589334
   14       -0.0384227010
   15       -0.0153006091
   16       -0.0040047895
   17       -0.0405295650
   18        0.0825022237
   19        0.0000573610
   20       -0.0005476439
   21        0.0173786988
   22        0.0027464875
   23       -0.0029096129
   24       -0.1253122744
   25       -0.0092269742
   26       -0.0094899998
   27        0.0187169740
   28        0.0003426289
   29       -0.0001059288
   30       -0.0002372960
   31       -0.0130252547
   32        0.1460895984
   33       -0.0295993075
   34       -0.0007016074
   35        0.0252254818
   36       -0.0031492345
   37        0.0113405677
   38        0.0007059629
   39       -0.0012785962
   40        0.0029922866
 Sym= A
 Ene=         22.00000000
 Spin= Alpha
 Occup=        0.00000000
    1       -0.0065492176
    2        0.0899395000
    3       -0.0884831109
    4        0.1601029194
    5       -0.0076572179
    6        0.0891513105
    7       -0.1896894386
    8        0.0102084879
    9       -0.0845990781
   10        0.8471984063
   11       -0.3780893623
   12       -0.4691090440
   13       -0.0430854471
   14       -0.4847643746
   15       -0.0550917806
   16       -0.0008404292
   17       -0.0081258546
   18        0.0165210329
   19       -0.0001746909
   20       -0.0003092810
   21        0.0049201505
   22        0.0070094757
   23       -0.0007526541
   24       -0.0278018021
   25       -0.0013460551
   26       -0.0014355207
   27        0.0027815758
   28        0.0001052534
   29       -0.0006810961
   30       -0.0000458674
   31       -0.0059887831
   32       -0.0117056959
   33        0.0202714000
   34       -0.0000110996
   35       -0.0022126709
   36       -0.0001340541
   37        0.0012377248
   38        0.0002125080
   39       -0.0006566808
   40        0.0005670122
 Sym= A
 Ene=         23.00000000
 Spin= Alpha
 Occup=        0.00000000
    1        0.0000357754
    2       -0.0001188144
    3        0.0003835013
    4        0.0002330201
    5        0.0000125659
    6        0.0013133853
    7        0.0025159121
    8       -0.0027032500
    9       -0.0024913078
   10       -0.0004341197
   11       -0.0005377856
   12        0.0009719053
   13       -0.0000051373
   14        0.0000286944
   15       -0.0001467497
   16        0.0160741265
   17       -0.2162508555
   18        0.2108033584
   19       -0.0045086993
   20       -0.0137086998
   21       -0.1299855465
   22       -0.0052427604
   23        0.0331838481
   24        0.1423169081
   25        0.1758693118
   26       -0.4963851646
   27        0.3205158528
   28        0.6812240908
   29        0.3360076475
   30       -0.3618909414
   31       -0.0000479601
   32        0.0001790199
   33        0.0003112381
   34        0.0000656947
   35       -0.0000160224
   36        0.0115558000
   37        0.0168865689
   38        0.0109220926
   39       -0.0198798817
   40       -0.0084310194
 Sym= A
 Ene=         24.00000000
 Spin= Alpha
 Occup=        0.00000000
    1       -0.0080765542
    2        0.1116660381
    3       -0.1103189076
    4       -0.0176977724
    5        0.0495720935
    6        0.0379444800
    7        0.0171407193
    8       -0.0556348787
    9       -0.0445776124
   10        0.4877745859
   11       -0.3620317311
   12       -0.1257428548
   13        0.0640889634
   14        0.8089350787
   15        0.2737660998
   16       -0.0003939260
   17       -0.0042043900
   18        0.0082647513
   19        0.0003652923
   20       -0.0001759103
   21        0.0022086417
   22       -0.0049399874
   23       -0.0008317835
   24       -0.0135454210
   25       -0.0007683728
   26       -0.0007937602
   27        0.0015621330
   28        0.0000101104
   29        0.0002268534
   30       -0.0001525391
   31       -0.0035266223
   32        0.0035972579
   33        0.0004382303